BEGIN_CFG
 Size
    2
 Supercell
   5.549479      0.000000      0.000000
   0.000000      5.549479      0.000000
   0.000000      0.000000      5.549479
 AtomData:  id    type    cartes_x      cartes_y      cartes_z           fx          fy          fz
            1     0       5.549479      5.549479      5.549479           0.000000      0.000000      0.000000
            2     0       2.774740      2.774740      2.774740           0.000000      0.000000      0.000000
 PlusStress: xx          yy          zz          yz          xz          xy
         -0.011045   -0.011045   -0.011045    0.000000    0.000000    0.000000
 Energy
    -407.388264
END_CFG

BEGIN_CFG
 Size
    2
 Supercell
   5.965677      0.000000      0.000000
   0.000000      5.965677      0.000000
   0.000000      0.000000      5.965677
 AtomData:  id    type    cartes_x      cartes_y      cartes_z           fx          fy          fz
            1     0       0.000000      0.000000      0.000000           -0.041260      -0.041260      -0.041260
            2     0       3.206551      3.206551      3.206551           0.041260      0.041260      0.041260
 PlusStress: xx          yy          zz          yz          xz          xy
         -0.008376   -0.008376   -0.008376   -0.000059   -0.000059   -0.000059
 Energy
    -407.016524
END_CFG

BEGIN_CFG
 Size
    2
 Supercell
   5.602397      0.000000      0.000000
   0.000000      5.602397      0.000000
   0.000000      0.000000      5.602397
 AtomData:  id    type    cartes_x      cartes_y      cartes_z           fx          fy          fz
            1     0       0.560240      0.560240      0.560240           -0.000054      -0.000054      -0.000054
            2     0       3.361438      3.361438      3.361438           0.000054      0.000054      0.000054
 PlusStress: xx          yy          zz          yz          xz          xy
         -0.010690   -0.010690   -0.010690    0.000000    0.000000    0.000000
 Energy
    -407.336656
END_CFG

BEGIN_CFG
 Size
    2
 Supercell
   5.589167      0.000000      0.000000
   0.000000      5.589167      0.000000
   0.000000      0.000000      5.589167
 AtomData:  id    type    cartes_x      cartes_y      cartes_z           fx          fy          fz
            1     0       0.419188      0.419188      0.419188           -0.000023      -0.000023      -0.000023
            2     0       3.213771      3.213771      3.213771           0.000023      0.000023      0.000023
 PlusStress: xx          yy          zz          yz          xz          xy
         -0.010777   -0.010777   -0.010777    0.000000    0.000000    0.000000
 Energy
    -407.349643
END_CFG

BEGIN_CFG
 Size
    2
 Supercell
   5.562709      0.000000      0.000000
   0.000000      5.562709      0.000000
   0.000000      0.000000      5.562709
 AtomData:  id    type    cartes_x      cartes_y      cartes_z           fx          fy          fz
            1     0       0.139068      0.139068      0.139068           -0.000039      -0.000039      -0.000039
            2     0       2.920422      2.920422      2.920422           0.000039      0.000039      0.000039
 PlusStress: xx          yy          zz          yz          xz          xy
         -0.010955   -0.010955   -0.010955    0.000000    0.000000    0.000000
 Energy
    -407.375422
END_CFG

BEGIN_CFG
 Size
    2
 Supercell
   5.575938      0.000000      0.000000
   0.000000      5.575938      0.000000
   0.000000      0.000000      5.575938
 AtomData:  id    type    cartes_x      cartes_y      cartes_z           fx          fy          fz
            1     0       0.278797      0.278797      0.278797           -0.000012      -0.000012      -0.000012
            2     0       3.066766      3.066766      3.066766           0.000012      0.000012      0.000012
 PlusStress: xx          yy          zz          yz          xz          xy
         -0.010865   -0.010865   -0.010865    -0.000000    -0.000000    -0.000000
 Energy
    -407.362443
END_CFG

BEGIN_CFG
 Size
    2
 Supercell
   5.628856      0.000000      0.000000
   0.000000      5.628856      0.000000
   0.000000      0.000000      5.628856
 AtomData:  id    type    cartes_x      cartes_y      cartes_z           fx          fy          fz
            1     0       0.844328      0.844328      0.844328           -0.000019      -0.000019      -0.000019
            2     0       3.658756      3.658756      3.658756           0.000019      0.000019      0.000019
 PlusStress: xx          yy          zz          yz          xz          xy
         -0.010517   -0.010517   -0.010517    0.000000    0.000000    0.000000
 Energy
    -407.311044
END_CFG

BEGIN_CFG
 Size
    2
 Supercell
   5.615626      0.000000      0.000000
   0.000000      5.615626      0.000000
   0.000000      0.000000      5.615626
 AtomData:  id    type    cartes_x      cartes_y      cartes_z           fx          fy          fz
            1     0       0.701953      0.701953      0.701953           -0.000037      -0.000037      -0.000037
            2     0       3.509766      3.509766      3.509766           0.000037      0.000037      0.000037
 PlusStress: xx          yy          zz          yz          xz          xy
         -0.010604   -0.010604   -0.010604    0.000000    0.000000    0.000000
 Energy
    -407.323929
END_CFG

BEGIN_CFG
 Size
    2
 Supercell
   5.642085      0.000000      0.000000
   0.000000      5.642085      0.000000
   0.000000      0.000000      5.642085
 AtomData:  id    type    cartes_x      cartes_y      cartes_z           fx          fy          fz
            1     0       0.987365      0.987365      0.987365           -0.000066      -0.000066      -0.000066
            2     0       3.808407      3.808407      3.808407           0.000066      0.000066      0.000066
 PlusStress: xx          yy          zz          yz          xz          xy
         -0.010430   -0.010430   -0.010430    0.000000    0.000000    0.000000
 Energy
    -407.298391
END_CFG

BEGIN_CFG
 Size
    2
 Supercell
   4.994531      0.000000      0.000000
   0.000000      4.994531      0.000000
   0.000000      0.000000      4.994531
 AtomData:  id    type    cartes_x      cartes_y      cartes_z           fx          fy          fz
            1     0       0.000000      0.000000      0.000000           0.009146      0.009146      0.009146
            2     0       2.247539      2.247539      2.247539           -0.009146      -0.009146      -0.009146
 PlusStress: xx          yy          zz          yz          xz          xy
         -0.014738   -0.014738   -0.014738    0.000096    0.000096    0.000096
 Energy
    -407.970553
END_CFG

BEGIN_CFG
 Size
    2
 Supercell
   5.272032      0.000000      0.000000
   0.000000      5.272032      0.000000
   0.000000      0.000000      5.272032
 AtomData:  id    type    cartes_x      cartes_y      cartes_z           fx          fy          fz
            1     0       0.000000      0.000000      0.000000           0.015708      0.015708      0.015708
            2     0       2.504215      2.504215      2.504215           -0.015708      -0.015708      -0.015708
 PlusStress: xx          yy          zz          yz          xz          xy
         -0.012941   -0.012941   -0.012941    0.000001    0.000001    0.000001
 Energy
    -407.672974
END_CFG

BEGIN_CFG
 Size
    2
 Supercell
   5.133281      0.000000      0.000000
   0.000000      5.133281      0.000000
   0.000000      0.000000      5.133281
 AtomData:  id    type    cartes_x      cartes_y      cartes_z           fx          fy          fz
            1     0       0.000000      0.000000      0.000000           0.016251      0.016251      0.016251
            2     0       2.374143      2.374143      2.374143           -0.016251      -0.016251      -0.016251
 PlusStress: xx          yy          zz          yz          xz          xy
         -0.013865   -0.013865   -0.013865    0.000025    0.000025    0.000025
 Energy
    -407.821413
END_CFG

BEGIN_CFG
 Size
    2
 Supercell
   5.688229      0.000000      0.000000
   0.000000      5.688229      0.000000
   0.000000      0.000000      5.688229
 AtomData:  id    type    cartes_x      cartes_y      cartes_z           fx          fy          fz
            1     0       0.000000      0.000000      0.000000           -0.012402      -0.012402      -0.012402
            2     0       2.915218      2.915218      2.915218           0.012402      0.012402      0.012402
 PlusStress: xx          yy          zz          yz          xz          xy
         -0.010124   -0.010124   -0.010124   -0.000005   -0.000005   -0.000005
 Energy
    -407.255642
END_CFG

BEGIN_CFG
 Size
    2
 Supercell
   5.826980      0.000000      0.000000
   0.000000      5.826980      0.000000
   0.000000      0.000000      5.826980
 AtomData:  id    type    cartes_x      cartes_y      cartes_z           fx          fy          fz
            1     0       0.000000      0.000000      0.000000           -0.026199      -0.026199      -0.026199
            2     0       3.059164      3.059164      3.059164           0.026199      0.026199      0.026199
 PlusStress: xx          yy          zz          yz          xz          xy
         -0.009231   -0.009231   -0.009231   -0.000024   -0.000024   -0.000024
 Energy
    -407.131488
END_CFG

BEGIN_CFG
 Size
    2
 Supercell
   5.549479      0.000000      0.000000
   0.000000      5.549479      0.000000
   0.000000      0.000000      5.549479
 AtomData:  id    type    cartes_x      cartes_y      cartes_z           fx          fy          fz
            1     0       0.000000      0.000000      0.000000           0.000000      0.000000      0.000000
            2     0       2.774740      2.774740      2.774740           0.000000      0.000000      0.000000
 PlusStress: xx          yy          zz          yz          xz          xy
         -0.011045   -0.011045   -0.011045    0.000000    0.000000    0.000000
 Energy
    -407.388264
END_CFG

BEGIN_CFG
 Size
    2
 Supercell
   5.410729      0.000000      0.000000
   0.000000      5.410729      0.000000
   0.000000      0.000000      5.410729
 AtomData:  id    type    cartes_x      cartes_y      cartes_z           fx          fy          fz
            1     0       0.000000      0.000000      0.000000           0.009648      0.009648      0.009648
            2     0       2.637730      2.637730      2.637730           -0.009648      -0.009648      -0.009648
 PlusStress: xx          yy          zz          yz          xz          xy
         -0.011992   -0.011992   -0.011992   -0.000002   -0.000002   -0.000002
 Energy
    -407.527853
END_CFG

