BEGIN_CFG
 Size
    2
 Supercell
   5.422106      0.000000      0.000000
   0.000000      5.422106      0.000000
   0.000000      0.000000      5.422106
 AtomData:  id    type    cartes_x      cartes_y      cartes_z           fx          fy          fz
            1     Li      5.227827      5.191152      5.233281           -0.021653      -0.010847      -0.012367
            2     Li      2.689202      2.566977      2.621735           0.021653      0.010847      0.012367
 Stress: xx          yy          zz          yz          xz          xy
         -0.044802   -0.044914   -0.044899    -0.000000    0.000001    0.000001
 Energy
    -405.615636
END_CFG

BEGIN_CFG
 Size
    2
 Supercell
   5.403638      0.000000      0.000000
   0.000000      5.403638      0.000000
   0.000000      0.000000      5.403638
 AtomData:  id    type    cartes_x      cartes_y      cartes_z           fx          fy          fz
            1     Li      0.168280      0.099270      0.020210           -0.008506      -0.006535      0.001959
            2     Li      2.939952      2.852753      2.704942           0.008506      0.006535      -0.001959
 Stress: xx          yy          zz          yz          xz          xy
         -0.045337   -0.045348   -0.045361    -0.000000    -0.000000    0.000001
 Energy
    -405.634136
END_CFG

BEGIN_CFG
 Size
    2
 Supercell
   5.326749      0.000000      0.000000
   0.000000      5.326749      0.000000
   0.000000      0.000000      5.326749
 AtomData:  id    type    cartes_x      cartes_y      cartes_z           fx          fy          fz
            1     Li      0.118206      0.203903      0.031742           0.001086      0.001055      0.012438
            2     Li      2.771758      2.857055      2.568121           -0.001086      -0.001055      -0.012438
 Stress: xx          yy          zz          yz          xz          xy
         -0.047442   -0.047441   -0.047352    0.000000    0.000000    0.000000
 Energy
    -405.707082
END_CFG

BEGIN_CFG
 Size
    2
 Supercell
   5.587262      0.000000      0.000000
   0.000000      5.587262      0.000000
   0.000000      0.000000      5.587262
 AtomData:  id    type    cartes_x      cartes_y      cartes_z           fx          fy          fz
            1     Li      0.181580      0.270859      0.078451           0.055770      -0.000981      -0.018752
            2     Li      2.532315      3.072430      3.021949           -0.055770      0.000981      0.018752
 Stress: xx          yy          zz          yz          xz          xy
         -0.040430   -0.041048   -0.040954   -0.000001    0.000026    0.000002
 Energy
    -405.464113
END_CFG

BEGIN_CFG
 Size
    2
 Supercell
   5.384852      0.000000      0.000000
   0.000000      5.384852      0.000000
   0.000000      0.000000      5.384852
 AtomData:  id    type    cartes_x      cartes_y      cartes_z           fx          fy          fz
            1     Li      5.127246      5.376791      0.148665           -0.016599      0.011525      0.021613
            2     Li      2.594589      2.573599      2.634674           0.016599      -0.011525      -0.021613
 Stress: xx          yy          zz          yz          xz          xy
         -0.045831   -0.045897   -0.045752    0.000000   -0.000001    0.000001
 Energy
    -405.651241
END_CFG

BEGIN_CFG
 Size
    2
 Supercell
   5.697649      0.000000      0.000000
   0.000000      5.697649      0.000000
   0.000000      0.000000      5.697649
 AtomData:  id    type    cartes_x      cartes_y      cartes_z           fx          fy          fz
            1     Li      0.138174      0.003288      5.546353           0.028740      0.005543      -0.006212
            2     Li      2.796702      2.815835      2.736296           -0.028740      -0.005543      0.006212
 Stress: xx          yy          zz          yz          xz          xy
         -0.038532   -0.038656   -0.038656    0.000001    0.000006   -0.000006
 Energy
    -405.340995
END_CFG

BEGIN_CFG
 Size
    2
 Supercell
   5.552919      0.000000      0.000000
   0.000000      5.552919      0.000000
   0.000000      0.000000      5.552919
 AtomData:  id    type    cartes_x      cartes_y      cartes_z           fx          fy          fz
            1     Li      0.101291      5.307691      0.049071           -0.000369      -0.058898      0.021330
            2     Li      2.881304      3.027579      2.643856           0.000369      0.058898      -0.021330
 Stress: xx          yy          zz          yz          xz          xy
         -0.041823   -0.041078   -0.041684    0.000028    0.000000   -0.000001
 Energy
    -405.500682
END_CFG

BEGIN_CFG
 Size
    2
 Supercell
   5.660077      0.000000      0.000000
   0.000000      5.660077      0.000000
   0.000000      0.000000      5.660077
 AtomData:  id    type    cartes_x      cartes_y      cartes_z           fx          fy          fz
            1     Li      5.588545      0.266307      5.459524           -0.035596      0.027259      -0.045345
            2     Li      3.011925      2.902720      2.959637           0.035596      -0.027259      0.045345
 Stress: xx          yy          zz          yz          xz          xy
         -0.039221   -0.039310   -0.039089    0.000035   -0.000046    0.000026
 Energy
    -405.395645
END_CFG

BEGIN_CFG
 Size
    2
 Supercell
   5.518575      0.000000      0.000000
   0.000000      5.518575      0.000000
   0.000000      0.000000      5.518575
 AtomData:  id    type    cartes_x      cartes_y      cartes_z           fx          fy          fz
            1     Li      5.370937      0.041952      5.267999           -0.002912      0.015171      -0.011854
            2     Li      2.631135      2.696238      2.591633           0.002912      -0.015171      0.011854
 Stress: xx          yy          zz          yz          xz          xy
         -0.042589   -0.042539   -0.042558    0.000002    -0.000000    0.000000
 Energy
    -405.518032
END_CFG

BEGIN_CFG
 Size
    2
 Supercell
   5.367442      0.000000      0.000000
   0.000000      5.367442      0.000000
   0.000000      0.000000      5.367442
 AtomData:  id    type    cartes_x      cartes_y      cartes_z           fx          fy          fz
            1     Li      5.354169      0.194205      5.281332           -0.023381      0.039638      -0.024050
            2     Li      2.912084      2.437694      2.843558           0.023381      -0.039638      0.024050
 Stress: xx          yy          zz          yz          xz          xy
         -0.046158   -0.045684   -0.046148   -0.000023    0.000011   -0.000023
 Energy
    -405.679524
END_CFG

