
     Program PWSCF v.7.0 starts on  6Jan2025 at 20:14:59 

     This program is part of the open-source Quantum ESPRESSO suite
     for quantum simulation of materials; please cite
         "P. Giannozzi et al., J. Phys.:Condens. Matter 21 395502 (2009);
         "P. Giannozzi et al., J. Phys.:Condens. Matter 29 465901 (2017);
         "P. Giannozzi et al., J. Chem. Phys. 152 154105 (2020);
          URL http://www.quantum-espresso.org", 
     in publications or presentations arising from this work. More details at
     http://www.quantum-espresso.org/quote

     Parallel version (MPI), running on     1 processors

     MPI processes distributed on     1 nodes
     0 MiB available memory on the printing compute node when the environment starts

     Reading input from li_scf_single.in

     Current dimensions of program PWSCF are:
     Max number of different atomic species (ntypx) = 10
     Max number of k-points (npk) =  40000
     Max angular momentum in pseudopotentials (lmaxx) =  4

     Subspace diagonalization in iterative solution of the eigenvalue problem:
     a serial algorithm will be used


     G-vector sticks info
     --------------------
     sticks:   dense  smooth     PW     G-vecs:    dense   smooth      PW
     Sum        2385     949    293                87655    22119    3743

     Using Slab Decomposition



     bravais-lattice index     =            1
     lattice parameter (alat)  =      10.0000  a.u.
     unit-cell volume          =    1000.0000 (a.u.)^3
     number of atoms/cell      =            1
     number of atomic types    =            1
     number of electrons       =         3.00
     number of Kohn-Sham states=            6
     kinetic-energy cutoff     =      30.0000  Ry
     charge density cutoff     =     300.0000  Ry
     scf convergence threshold =      1.0E-08
     mixing beta               =       0.7000
     number of iterations used =            8  plain     mixing
     Exchange-correlation= SLA  PW   PBX  PBC
                           (   1   4   3   4   0   0   0)

     celldm(1)=  10.000000  celldm(2)=   0.000000  celldm(3)=   0.000000
     celldm(4)=   0.000000  celldm(5)=   0.000000  celldm(6)=   0.000000

     crystal axes: (cart. coord. in units of alat)
               a(1) = (   1.000000   0.000000   0.000000 )  
               a(2) = (   0.000000   1.000000   0.000000 )  
               a(3) = (   0.000000   0.000000   1.000000 )  

     reciprocal axes: (cart. coord. in units 2 pi/alat)
               b(1) = (  1.000000  0.000000  0.000000 )  
               b(2) = (  0.000000  1.000000  0.000000 )  
               b(3) = (  0.000000  0.000000  1.000000 )  


     PseudoPot. # 1 for Li read from file:
     ../pseudopotentials/Li.pbe-s-kjpaw_psl.1.0.0.UPF
     MD5 check sum: d3662511b3860c829f7212fdb89d6128
     Pseudo is Projector augmented-wave, Zval =  3.0
     Generated using &quot;atomic&quot; code by A. Dal Corso  v.6.3
     Shape of augmentation charge: PSQ
     Using radial grid of 1017 points,  4 beta functions with: 
                l(1) =   0
                l(2) =   0
                l(3) =   1
                l(4) =   1
     Q(r) pseudized with 0 coefficients 


     atomic species   valence    mass     pseudopotential
        Li             3.00     6.94000     Li( 1.00)

     48 Sym. Ops., with inversion, found



   Cartesian axes

     site n.     atom                  positions (alat units)
         1           Li  tau(   1) = (   0.0000000   0.0000000   0.0000000  )

     number of k points=    10  Gaussian smearing, width (Ry)=  0.0100
                       cart. coord. in units 2pi/alat
        k(    1) = (   0.0000000   0.0000000   0.0000000), wk =   0.0312500
        k(    2) = (   0.0000000   0.0000000   0.2500000), wk =   0.1875000
        k(    3) = (   0.0000000   0.0000000  -0.5000000), wk =   0.0937500
        k(    4) = (   0.0000000   0.2500000   0.2500000), wk =   0.3750000
        k(    5) = (   0.0000000   0.2500000  -0.5000000), wk =   0.3750000
        k(    6) = (   0.0000000  -0.5000000  -0.5000000), wk =   0.0937500
        k(    7) = (   0.2500000   0.2500000   0.2500000), wk =   0.2500000
        k(    8) = (   0.2500000   0.2500000  -0.5000000), wk =   0.3750000
        k(    9) = (   0.2500000  -0.5000000  -0.5000000), wk =   0.1875000
        k(   10) = (  -0.5000000  -0.5000000  -0.5000000), wk =   0.0312500

     Dense  grid:    87655 G-vectors     FFT dimensions: (  60,  60,  60)

     Smooth grid:    22119 G-vectors     FFT dimensions: (  36,  36,  36)

     Estimated max dynamical RAM per process >     121.18 MB

     Initial potential from superposition of free atoms

     starting charge       2.9954, renormalised to       3.0000
     Starting wfcs are    5 randomized atomic wfcs +    1 random wfcs
     Checking if some PAW data can be deallocated... 

     total cpu time spent up to now is        0.3 secs

     Self-consistent Calculation

     iteration #  1     ecut=    30.00 Ry     beta= 0.70
     Davidson diagonalization with overlap
     ethr =  1.00E-02,  avg # of iterations =  6.0

     Threshold (ethr) on eigenvalues was too large:
     Diagonalizing with lowered threshold

     Davidson diagonalization with overlap
     ethr =  2.60E-04,  avg # of iterations =  3.3

     total cpu time spent up to now is        0.6 secs

     total energy              =     -14.87012433 Ry
     estimated scf accuracy    <       0.00805901 Ry

     iteration #  2     ecut=    30.00 Ry     beta= 0.70
     Davidson diagonalization with overlap
     ethr =  2.69E-04,  avg # of iterations =  1.0

     total cpu time spent up to now is        0.8 secs

     total energy              =     -14.87052779 Ry
     estimated scf accuracy    <       0.00053316 Ry

     iteration #  3     ecut=    30.00 Ry     beta= 0.70
     Davidson diagonalization with overlap
     ethr =  1.78E-05,  avg # of iterations =  4.7

     total cpu time spent up to now is        1.0 secs

     total energy              =     -14.87061765 Ry
     estimated scf accuracy    <       0.00001263 Ry

     iteration #  4     ecut=    30.00 Ry     beta= 0.70
     Davidson diagonalization with overlap
     ethr =  4.21E-07,  avg # of iterations =  4.4

     total cpu time spent up to now is        1.2 secs

     total energy              =     -14.87062407 Ry
     estimated scf accuracy    <       0.00000023 Ry

     iteration #  5     ecut=    30.00 Ry     beta= 0.70
     Davidson diagonalization with overlap
     ethr =  7.57E-09,  avg # of iterations =  1.9

     total cpu time spent up to now is        1.4 secs

     End of self-consistent calculation

          k = 0.0000 0.0000 0.0000 (  2777 PWs)   bands (ev):

   -52.2031  -3.0994   1.0517   1.0517   1.0517   2.5582

          k = 0.0000 0.0000 0.2500 (  2777 PWs)   bands (ev):

   -52.2038  -2.8094  -0.3575   1.2378   1.2378   2.8618

          k = 0.0000 0.0000-0.5000 (  2762 PWs)   bands (ev):

   -52.1970  -2.1772  -1.5458   1.4805   1.4805   3.3127

          k = 0.0000 0.2500 0.2500 (  2758 PWs)   bands (ev):

   -52.1947  -2.5218  -0.2143   0.0154   1.4140   2.6176

          k = 0.0000 0.2500-0.5000 (  2770 PWs)   bands (ev):

   -52.2000  -1.9000  -1.2748   0.3216   1.6384   1.7681

          k = 0.0000-0.5000-0.5000 (  2752 PWs)   bands (ev):

   -52.1911  -1.2477  -0.8234  -0.8234   0.6904   1.8325

          k = 0.2500 0.2500 0.2500 (  2782 PWs)   bands (ev):

   -52.2056  -2.2392   0.0220   0.0220   0.4146   2.6011

          k = 0.2500 0.2500-0.5000 (  2798 PWs)   bands (ev):

   -52.2122  -1.6288  -1.0099   0.3718   0.7502   1.8677

          k = 0.2500-0.5000-0.5000 (  2760 PWs)   bands (ev):

   -52.1934  -0.9934  -0.5790  -0.5790   0.9288   1.0095

          k =-0.5000-0.5000-0.5000 (  2800 PWs)   bands (ev):

   -52.2115  -0.2753  -0.2090  -0.2090  -0.2090   1.6981

     the Fermi energy is    -1.9895 ev

!    total energy              =     -14.87062445 Ry

     total all-electron energy =       -14.870636 Ry
     estimated scf accuracy    <          5.7E-09 Ry
     smearing contrib. (-TS)   =      -0.00075084 Ry
     internal energy E=F+TS    =     -14.86987362 Ry

     The total energy is F=E-TS. E is the sum of the following terms:
     one-electron contribution =     -14.28363828 Ry
     hartree contribution      =       5.23921777 Ry
     xc contribution           =      -3.34404907 Ry
     ewald contribution        =      -2.55356773 Ry
     one-center paw contrib.   =       0.07216369 Ry

     convergence has been achieved in   5 iterations

     Forces acting on atoms (cartesian axes, Ry/au):

     atom    1 type  1   force =     0.00000000    0.00000000    0.00000000

     Total force =     0.000000     Total SCF correction =     0.000000


     Computing stress (Cartesian axis) and pressure

          total   stress  (Ry/bohr**3)                   (kbar)     P=      -36.40
  -0.00024747   0.00000000   0.00000000          -36.40        0.00        0.00
   0.00000000  -0.00024747   0.00000000            0.00      -36.40        0.00
   0.00000000   0.00000000  -0.00024747            0.00        0.00      -36.40


     Writing all to output data dir ./tmp/Li_single.save/

     init_run     :      0.20s CPU      0.24s WALL (       1 calls)
     electrons    :      1.03s CPU      1.11s WALL (       1 calls)
     forces       :      0.03s CPU      0.03s WALL (       1 calls)
     stress       :      0.16s CPU      0.17s WALL (       1 calls)

     Called by init_run:
     wfcinit      :      0.03s CPU      0.04s WALL (       1 calls)
     potinit      :      0.06s CPU      0.07s WALL (       1 calls)
     hinit0       :      0.07s CPU      0.07s WALL (       1 calls)

     Called by electrons:
     c_bands      :      0.51s CPU      0.54s WALL (       6 calls)
     sum_band     :      0.19s CPU      0.21s WALL (       6 calls)
     v_of_rho     :      0.22s CPU      0.24s WALL (       6 calls)
     newd         :      0.08s CPU      0.10s WALL (       6 calls)
     PAW_pot      :      0.06s CPU      0.07s WALL (       6 calls)
     mix_rho      :      0.02s CPU      0.02s WALL (       6 calls)

     Called by c_bands:
     init_us_2    :      0.02s CPU      0.02s WALL (     150 calls)
     init_us_2:cp :      0.02s CPU      0.02s WALL (     150 calls)
     cegterg      :      0.49s CPU      0.52s WALL (      60 calls)

     Called by *egterg:
     cdiaghg      :      0.01s CPU      0.01s WALL (     263 calls)
     h_psi        :      0.43s CPU      0.44s WALL (     283 calls)
     s_psi        :      0.01s CPU      0.01s WALL (     283 calls)
     g_psi        :      0.00s CPU      0.00s WALL (     213 calls)

     Called by h_psi:
     h_psi:calbec :      0.01s CPU      0.02s WALL (     283 calls)
     vloc_psi     :      0.40s CPU      0.40s WALL (     283 calls)
     add_vuspsi   :      0.01s CPU      0.02s WALL (     283 calls)

     General routines
     calbec       :      0.02s CPU      0.03s WALL (     393 calls)
     fft          :      0.12s CPU      0.13s WALL (      85 calls)
     ffts         :      0.01s CPU      0.01s WALL (      12 calls)
     fftw         :      0.42s CPU      0.42s WALL (    2334 calls)
     interpolate  :      0.01s CPU      0.01s WALL (       6 calls)

     Parallel routines

     PWSCF        :      1.45s CPU      1.61s WALL


   This run was terminated on:  20:15: 0   6Jan2025            

=------------------------------------------------------------------------------=
   JOB DONE.
=------------------------------------------------------------------------------=
