BEGIN_CFG
 Size
    2
 Supercell
   1.534931      1.534931      1.534931
   -1.534931      1.534931      1.534931
   -1.534931      -1.534931      1.534931
 AtomData:  id    type    cartes_x      cartes_y      cartes_z           fx          fy          fz
            1     0       0.000000      0.000000      0.000000           0.000000      0.000000      0.000000
            2     0       -0.767465      0.767465      2.302396           0.000000      0.000000      0.000000
 PlusStress: xx          yy          zz          yz          xz          xy
          0.385708    0.385708    0.385708   -0.297220    0.297220   -0.297220
 Energy
    0.610711
END_CFG

BEGIN_CFG
 Size
    2
 Supercell
   1.558029      1.558029      1.558029
   -1.558029      1.558029      1.558029
   -1.558029      -1.558029      1.558029
 AtomData:  id    type    cartes_x      cartes_y      cartes_z           fx          fy          fz
            1     0       0.000000      0.000000      0.000000           0.000000      0.000000      0.000000
            2     0       -0.779015      0.779015      2.337044           0.000000      0.000000      0.000000
 PlusStress: xx          yy          zz          yz          xz          xy
          0.343143    0.343143    0.343143   -0.281564    0.281564   -0.281564
 Energy
    0.484162
END_CFG

BEGIN_CFG
 Size
    2
 Supercell
   1.581101      1.581101      1.581101
   -1.581101      1.581101      1.581101
   -1.581101      -1.581101      1.581101
 AtomData:  id    type    cartes_x      cartes_y      cartes_z           fx          fy          fz
            1     0       0.000000      0.000000      0.000000           0.000000      0.000000      0.000000
            2     0       -0.790551      0.790551      2.371652           0.000000      0.000000      0.000000
 PlusStress: xx          yy          zz          yz          xz          xy
          0.305201    0.305201    0.305201   -0.266690    0.266690   -0.266690
 Energy
    0.367987
END_CFG

BEGIN_CFG
 Size
    2
 Supercell
   1.604200      1.604200      1.604200
   -1.604200      1.604200      1.604200
   -1.604200      -1.604200      1.604200
 AtomData:  id    type    cartes_x      cartes_y      cartes_z           fx          fy          fz
            1     0       0.000000      0.000000      0.000000           0.000000      0.000000      0.000000
            2     0       -0.802100      0.802100      2.406300           0.000000      0.000000      0.000000
 PlusStress: xx          yy          zz          yz          xz          xy
          0.271447    0.271447    0.271447   -0.252596    0.252596   -0.252596
 Energy
    0.261266
END_CFG

BEGIN_CFG
 Size
    2
 Supercell
   1.627272      1.627272      1.627272
   -1.627272      1.627272      1.627272
   -1.627272      -1.627272      1.627272
 AtomData:  id    type    cartes_x      cartes_y      cartes_z           fx          fy          fz
            1     0       0.000000      0.000000      0.000000           0.000000      0.000000      0.000000
            2     0       -0.813636      0.813636      2.440908           0.000000      0.000000      0.000000
 PlusStress: xx          yy          zz          yz          xz          xy
          0.241393    0.241393    0.241393   -0.239294    0.239294   -0.239294
 Energy
    0.163261
END_CFG

BEGIN_CFG
 Size
    2
 Supercell
   1.650344      1.650344      1.650344
   -1.650344      1.650344      1.650344
   -1.650344      -1.650344      1.650344
 AtomData:  id    type    cartes_x      cartes_y      cartes_z           fx          fy          fz
            1     0       0.000000      0.000000      0.000000           0.000000      0.000000      0.000000
            2     0       -0.825172      0.825172      2.475516           0.000000      0.000000      0.000000
 PlusStress: xx          yy          zz          yz          xz          xy
          0.214612    0.214612    0.214612   -0.226921    0.226921   -0.226921
 Energy
    0.073562
END_CFG

BEGIN_CFG
 Size
    2
 Supercell
   1.673443      1.673443      1.673443
   -1.673443      1.673443      1.673443
   -1.673443      -1.673443      1.673443
 AtomData:  id    type    cartes_x      cartes_y      cartes_z           fx          fy          fz
            1     0       0.000000      0.000000      0.000000           0.000000      0.000000      0.000000
            2     0       -0.836721      0.836721      2.510164           0.000000      0.000000      0.000000
 PlusStress: xx          yy          zz          yz          xz          xy
          0.191002    0.191002    0.191002   -0.215766    0.215766   -0.215766
 Energy
    -0.008657
END_CFG

BEGIN_CFG
 Size
    2
 Supercell
   1.696515      1.696515      1.696515
   -1.696515      1.696515      1.696515
   -1.696515      -1.696515      1.696515
 AtomData:  id    type    cartes_x      cartes_y      cartes_z           fx          fy          fz
            1     0       0.000000      0.000000      0.000000           0.000000      0.000000      0.000000
            2     0       -0.848258      0.848258      2.544773           0.000000      0.000000      0.000000
 PlusStress: xx          yy          zz          yz          xz          xy
          0.170241    0.170241    0.170241   -0.206111    0.206111   -0.206111
 Energy
    -0.083880
END_CFG

BEGIN_CFG
 Size
    2
 Supercell
   1.719587      1.719587      1.719587
   -1.719587      1.719587      1.719587
   -1.719587      -1.719587      1.719587
 AtomData:  id    type    cartes_x      cartes_y      cartes_z           fx          fy          fz
            1     0       0.000000      0.000000      0.000000           0.000000      0.000000      0.000000
            2     0       -0.859794      0.859794      2.579381           0.000000      0.000000      0.000000
 PlusStress: xx          yy          zz          yz          xz          xy
          0.151941    0.151941    0.151941   -0.197558    0.197558   -0.197558
 Energy
    -0.153082
END_CFG

BEGIN_CFG
 Size
    2
 Supercell
   1.742686      1.742686      1.742686
   -1.742686      1.742686      1.742686
   -1.742686      -1.742686      1.742686
 AtomData:  id    type    cartes_x      cartes_y      cartes_z           fx          fy          fz
            1     0       0.000000      0.000000      0.000000           0.000000      0.000000      0.000000
            2     0       -0.871343      0.871343      2.614029           0.000000      0.000000      0.000000
 PlusStress: xx          yy          zz          yz          xz          xy
          0.135521    0.135521    0.135521   -0.189380    0.189380   -0.189380
 Energy
    -0.216616
END_CFG

BEGIN_CFG
 Size
    2
 Supercell
   1.765758      1.765758      1.765758
   -1.765758      1.765758      1.765758
   -1.765758      -1.765758      1.765758
 AtomData:  id    type    cartes_x      cartes_y      cartes_z           fx          fy          fz
            1     0       0.000000      0.000000      0.000000           0.000000      0.000000      0.000000
            2     0       -0.882879      0.882879      2.648637           0.000000      0.000000      0.000000
 PlusStress: xx          yy          zz          yz          xz          xy
          0.120732    0.120732    0.120732   -0.181313    0.181313   -0.181313
 Energy
    -0.275161
END_CFG

BEGIN_CFG
 Size
    2
 Supercell
   1.788856      1.788856      1.788856
   -1.788856      1.788856      1.788856
   -1.788856      -1.788856      1.788856
 AtomData:  id    type    cartes_x      cartes_y      cartes_z           fx          fy          fz
            1     0       0.000000      0.000000      0.000000           0.000000      0.000000      0.000000
            2     0       -0.894428      0.894428      2.683285           0.000000      0.000000      0.000000
 PlusStress: xx          yy          zz          yz          xz          xy
          0.107489    0.107489    0.107489   -0.173453    0.173453   -0.173453
 Energy
    -0.329321
END_CFG

BEGIN_CFG
 Size
    2
 Supercell
   1.811929      1.811929      1.811929
   -1.811929      1.811929      1.811929
   -1.811929      -1.811929      1.811929
 AtomData:  id    type    cartes_x      cartes_y      cartes_z           fx          fy          fz
            1     0       0.000000      0.000000      0.000000           0.000000      0.000000      0.000000
            2     0       -0.905964      0.905964      2.717893           0.000000      0.000000      0.000000
 PlusStress: xx          yy          zz          yz          xz          xy
          0.095523    0.095523    0.095523   -0.165848    0.165848   -0.165848
 Energy
    -0.378709
END_CFG

BEGIN_CFG
 Size
    2
 Supercell
   1.835001      1.835001      1.835001
   -1.835001      1.835001      1.835001
   -1.835001      -1.835001      1.835001
 AtomData:  id    type    cartes_x      cartes_y      cartes_z           fx          fy          fz
            1     0       0.000000      0.000000      0.000000           0.000000      0.000000      0.000000
            2     0       -0.917500      0.917500      2.752501           0.000000      0.000000      0.000000
 PlusStress: xx          yy          zz          yz          xz          xy
          0.084796    0.084796    0.084796   -0.158542    0.158542   -0.158542
 Energy
    -0.424036
END_CFG

BEGIN_CFG
 Size
    2
 Supercell
   1.858099      1.858099      1.858099
   -1.858099      1.858099      1.858099
   -1.858099      -1.858099      1.858099
 AtomData:  id    type    cartes_x      cartes_y      cartes_z           fx          fy          fz
            1     0       0.000000      0.000000      0.000000           0.000000      0.000000      0.000000
            2     0       -0.929050      0.929050      2.787149           0.000000      0.000000      0.000000
 PlusStress: xx          yy          zz          yz          xz          xy
          0.075104    0.075104    0.075104   -0.151492    0.151492   -0.151492
 Energy
    -0.465306
END_CFG

BEGIN_CFG
 Size
    2
 Supercell
   1.881171      1.881171      1.881171
   -1.881171      1.881171      1.881171
   -1.881171      -1.881171      1.881171
 AtomData:  id    type    cartes_x      cartes_y      cartes_z           fx          fy          fz
            1     0       0.000000      0.000000      0.000000           0.000000      0.000000      0.000000
            2     0       -0.940586      0.940586      2.821757           0.000000      0.000000      0.000000
 PlusStress: xx          yy          zz          yz          xz          xy
          0.066495    0.066495    0.066495   -0.144842    0.144842   -0.144842
 Energy
    -0.503372
END_CFG

BEGIN_CFG
 Size
    2
 Supercell
   1.904243      1.904243      1.904243
   -1.904243      1.904243      1.904243
   -1.904243      -1.904243      1.904243
 AtomData:  id    type    cartes_x      cartes_y      cartes_z           fx          fy          fz
            1     0       0.000000      0.000000      0.000000           0.000000      0.000000      0.000000
            2     0       -0.952122      0.952122      2.856365           0.000000      0.000000      0.000000
 PlusStress: xx          yy          zz          yz          xz          xy
          0.058737    0.058737    0.058737   -0.138587    0.138587   -0.138587
 Energy
    -0.537912
END_CFG

BEGIN_CFG
 Size
    2
 Supercell
   1.927342      1.927342      1.927342
   -1.927342      1.927342      1.927342
   -1.927342      -1.927342      1.927342
 AtomData:  id    type    cartes_x      cartes_y      cartes_z           fx          fy          fz
            1     0       0.000000      0.000000      0.000000           0.000000      0.000000      0.000000
            2     0       -0.963671      0.963671      2.891013           0.000000      0.000000      0.000000
 PlusStress: xx          yy          zz          yz          xz          xy
          0.051773    0.051773    0.051773   -0.132693    0.132693   -0.132693
 Energy
    -0.569342
END_CFG

BEGIN_CFG
 Size
    2
 Supercell
   1.950414      1.950414      1.950414
   -1.950414      1.950414      1.950414
   -1.950414      -1.950414      1.950414
 AtomData:  id    type    cartes_x      cartes_y      cartes_z           fx          fy          fz
            1     0       0.000000      0.000000      0.000000           0.000000      0.000000      0.000000
            2     0       -0.975207      0.975207      2.925621           0.000000      0.000000      0.000000
 PlusStress: xx          yy          zz          yz          xz          xy
          0.045546    0.045546    0.045546   -0.127112    0.127112   -0.127112
 Energy
    -0.598067
END_CFG

BEGIN_CFG
 Size
    2
 Supercell
   1.973513      1.973513      1.973513
   -1.973513      1.973513      1.973513
   -1.973513      -1.973513      1.973513
 AtomData:  id    type    cartes_x      cartes_y      cartes_z           fx          fy          fz
            1     0       0.000000      0.000000      0.000000           0.000000      0.000000      0.000000
            2     0       -0.986756      0.986756      2.960269           0.000000      0.000000      0.000000
 PlusStress: xx          yy          zz          yz          xz          xy
          0.039956    0.039956    0.039956   -0.121789    0.121789   -0.121789
 Energy
    -0.624178
END_CFG
BEGIN_CFG
 Size
    2
 Supercell
   1.745000      1.745000      1.745000
   -1.745000      1.745000      1.745000
   -1.745000      -1.745000      1.745000
 AtomData:  id    type    cartes_x      cartes_y      cartes_z           fx          fy          fz
            1     0       0.001366      0.003408      0.002117           0.066347      0.209764      0.110033
            2     0       -0.873866      0.869092      2.615383           -0.066347      -0.209764      -0.110033
 PlusStress: xx          yy          zz          yz          xz          xy
         13.009506   13.009888   13.009590   -4.155546   4.155895   -4.155642
 Energy
    15.247024
END_CFG


BEGIN_CFG
 Size
    2
 Supercell
   1.745000      1.745000      1.745000
   -1.745000      1.745000      1.745000
   -1.745000      -1.745000      1.745000
 AtomData:  id    type    cartes_x      cartes_y      cartes_z           fx          fy          fz
            1     0       0.004050      0.010095      0.006266           0.197523      0.620754      0.325917
            2     0       -0.876550      0.862405      2.611234           -0.197523      -0.620754      -0.325917
 PlusStress: xx          yy          zz          yz          xz          xy
         13.007100   13.010405   13.007804   -4.149858   4.152896   -4.150705
 Energy
    15.244889
END_CFG


BEGIN_CFG
 Size
    2
 Supercell
   1.745000      1.745000      1.745000
   -1.745000      1.745000      1.745000
   -1.745000      -1.745000      1.745000
 AtomData:  id    type    cartes_x      cartes_y      cartes_z           fx          fy          fz
            1     0       0.000000      0.000000      0.000000           0.000000      0.000000      0.000000
            2     0       -0.872500      0.872500      2.617500           0.000000      0.000000      0.000000
 PlusStress: xx          yy          zz          yz          xz          xy
         13.009814   13.009814   13.009814   -4.156184   4.156184   -4.156184
 Energy
    15.247299
END_CFG


BEGIN_CFG
 Size
    2
 Supercell
   1.745000      1.745000      1.745000
   -1.745000      1.745000      1.745000
   -1.745000      -1.745000      1.745000
 AtomData:  id    type    cartes_x      cartes_y      cartes_z           fx          fy          fz
            1     0       0.002722      0.006785      0.004212           0.132401      0.417517      0.218851
            2     0       -0.875222      0.865715      2.613288           -0.132401      -0.417517      -0.218851
 PlusStress: xx          yy          zz          yz          xz          xy
         13.008584   13.010089   13.008902   -4.153375   4.154750   -4.153761
 Energy
    15.246210
END_CFG


BEGIN_CFG
 Size
    2
 Supercell
   1.745000      1.745000      1.745000
   -1.745000      1.745000      1.745000
   -1.745000      -1.745000      1.745000
 AtomData:  id    type    cartes_x      cartes_y      cartes_z           fx          fy          fz
            1     0       0.005340      0.013307      0.008261           0.260761      0.817977      0.429947
            2     0       -0.877840      0.859193      2.609239           -0.260761      -0.817977      -0.429947
 PlusStress: xx          yy          zz          yz          xz          xy
         13.005107   13.010791   13.006335   -4.145148   4.150416   -4.146612
 Energy
    15.243110
END_CFG


BEGIN_CFG
 Size
    2
 Supercell
   1.745000      1.745000      1.745000
   -1.745000      1.745000      1.745000
   -1.745000      -1.745000      1.745000
 AtomData:  id    type    cartes_x      cartes_y      cartes_z           fx          fy          fz
            1     0       0.000000      0.000000      0.000000           0.000000      0.000000      0.000000
            2     0       -0.872500      0.872500      2.617500           0.000000      0.000000      0.000000
 PlusStress: xx          yy          zz          yz          xz          xy
         13.009814   13.009814   13.009814   -4.156184   4.156184   -4.156184
 Energy
    15.247299
END_CFG


BEGIN_CFG
 Size
    2
 Supercell
   1.745000      1.745000      1.745000
   -1.745000      1.745000      1.745000
   -1.745000      -1.745000      1.745000
 AtomData:  id    type    cartes_x      cartes_y      cartes_z           fx          fy          fz
            1     0       0.000000      0.000000      0.000000           0.000000      0.000000      0.000000
            2     0       -0.872500      0.872500      2.617500           0.000000      0.000000      0.000000
 PlusStress: xx          yy          zz          yz          xz          xy
         13.009814   13.009814   13.009814   -4.156184   4.156184   -4.156184
 Energy
    15.247299
END_CFG


BEGIN_CFG
 Size
    2
 Supercell
   1.745000      1.745000      1.745000
   -1.745000      1.745000      1.745000
   -1.745000      -1.745000      1.745000
 AtomData:  id    type    cartes_x      cartes_y      cartes_z           fx          fy          fz
            1     0       0.000000      0.000000      0.000000           0.000000      0.000000      0.000000
            2     0       -0.872500      0.872500      2.617500           0.000000      0.000000      0.000000
 PlusStress: xx          yy          zz          yz          xz          xy
         13.009814   13.009814   13.009814   -4.156184   4.156184   -4.156184
 Energy
    15.247299
END_CFG


BEGIN_CFG
 Size
    2
 Supercell
   1.745000      1.745000      1.745000
   -1.745000      1.745000      1.745000
   -1.745000      -1.745000      1.745000
 AtomData:  id    type    cartes_x      cartes_y      cartes_z           fx          fy          fz
            1     0       0.000000      0.000000      0.000000           0.000000      0.000000      0.000000
            2     0       -0.872500      0.872500      2.617500           0.000000      0.000000      0.000000
 PlusStress: xx          yy          zz          yz          xz          xy
         13.009814   13.009814   13.009814   -4.156184   4.156184   -4.156184
 Energy
    15.247299
END_CFG


BEGIN_CFG
 Size
    2
 Supercell
   1.745000      1.745000      1.745000
   -1.745000      1.745000      1.745000
   -1.745000      -1.745000      1.745000
 AtomData:  id    type    cartes_x      cartes_y      cartes_z           fx          fy          fz
            1     0       0.000000      0.000000      0.000000           0.000000      0.000000      0.000000
            2     0       -0.872500      0.872500      2.617500           0.000000      0.000000      0.000000
 PlusStress: xx          yy          zz          yz          xz          xy
         13.009814   13.009814   13.009814   -4.156184   4.156184   -4.156184
 Energy
    15.247299
END_CFG


BEGIN_CFG
 Size
    2
 Supercell
   1.745000      1.745000      1.745000
   -1.745000      1.745000      1.745000
   -1.745000      -1.745000      1.745000
 AtomData:  id    type    cartes_x      cartes_y      cartes_z           fx          fy          fz
            1     0       0.000000      0.000000      0.000000           0.000000      0.000000      0.000000
            2     0       -0.872500      0.872500      2.617500           0.000000      0.000000      0.000000
 PlusStress: xx          yy          zz          yz          xz          xy
         13.009814   13.009814   13.009814   -4.156184   4.156184   -4.156184
 Energy
    15.247299
END_CFG


BEGIN_CFG
 Size
    2
 Supercell
   1.745000      1.745000      1.745000
   -1.745000      1.745000      1.745000
   -1.745000      -1.745000      1.745000
 AtomData:  id    type    cartes_x      cartes_y      cartes_z           fx          fy          fz
            1     0       0.000000      0.000000      0.000000           0.000000      0.000000      0.000000
            2     0       -0.872500      0.872500      2.617500           0.000000      0.000000      0.000000
 PlusStress: xx          yy          zz          yz          xz          xy
         13.009814   13.009814   13.009814   -4.156184   4.156184   -4.156184
 Energy
    15.247299
END_CFG


BEGIN_CFG
 Size
    2
 Supercell
   1.745000      1.745000      1.745000
   -1.745000      1.745000      1.745000
   -1.745000      -1.745000      1.745000
 AtomData:  id    type    cartes_x      cartes_y      cartes_z           fx          fy          fz
            1     0       0.000000      0.000000      0.000000           0.000000      0.000000      0.000000
            2     0       -0.872500      0.872500      2.617500           0.000000      0.000000      0.000000
 PlusStress: xx          yy          zz          yz          xz          xy
         13.009814   13.009814   13.009814   -4.156184   4.156184   -4.156184
 Energy
    15.247299
END_CFG


BEGIN_CFG
 Size
    2
 Supercell
   1.745000      1.745000      1.745000
   -1.745000      1.745000      1.745000
   -1.745000      -1.745000      1.745000
 AtomData:  id    type    cartes_x      cartes_y      cartes_z           fx          fy          fz
            1     0       0.000000      0.000000      0.000000           0.000000      0.000000      0.000000
            2     0       -0.872500      0.872500      2.617500           0.000000      0.000000      0.000000
 PlusStress: xx          yy          zz          yz          xz          xy
         13.009814   13.009814   13.009814   -4.156184   4.156184   -4.156184
 Energy
    15.247299
END_CFG


BEGIN_CFG
 Size
    2
 Supercell
   1.745000      1.745000      1.745000
   -1.745000      1.745000      1.745000
   -1.745000      -1.745000      1.745000
 AtomData:  id    type    cartes_x      cartes_y      cartes_z           fx          fy          fz
            1     0       0.000000      0.000000      0.000000           0.000000      0.000000      0.000000
            2     0       -0.872500      0.872500      2.617500           0.000000      0.000000      0.000000
 PlusStress: xx          yy          zz          yz          xz          xy
         13.009814   13.009814   13.009814   -4.156184   4.156184   -4.156184
 Energy
    15.247299
END_CFG


BEGIN_CFG
 Size
    2
 Supercell
   1.745000      1.745000      1.745000
   -1.745000      1.745000      1.745000
   -1.745000      -1.745000      1.745000
 AtomData:  id    type    cartes_x      cartes_y      cartes_z           fx          fy          fz
            1     0       0.000000      0.000000      0.000000           0.000000      0.000000      0.000000
            2     0       -0.872500      0.872500      2.617500           0.000000      0.000000      0.000000
 PlusStress: xx          yy          zz          yz          xz          xy
         13.009814   13.009814   13.009814   -4.156184   4.156184   -4.156184
 Energy
    15.247299
END_CFG


BEGIN_CFG
 Size
    2
 Supercell
   1.745000      1.745000      1.745000
   -1.745000      1.745000      1.745000
   -1.745000      -1.745000      1.745000
 AtomData:  id    type    cartes_x      cartes_y      cartes_z           fx          fy          fz
            1     0       0.000000      0.000000      0.000000           0.000000      0.000000      0.000000
            2     0       -0.872500      0.872500      2.617500           0.000000      0.000000      0.000000
 PlusStress: xx          yy          zz          yz          xz          xy
         13.009814   13.009814   13.009814   -4.156184   4.156184   -4.156184
 Energy
    15.247299
END_CFG


BEGIN_CFG
 Size
    2
 Supercell
   1.745000      1.745000      1.745000
   -1.745000      1.745000      1.745000
   -1.745000      -1.745000      1.745000
 AtomData:  id    type    cartes_x      cartes_y      cartes_z           fx          fy          fz
            1     0       0.000000      0.000000      0.000000           0.000000      0.000000      0.000000
            2     0       -0.872500      0.872500      2.617500           0.000000      0.000000      0.000000
 PlusStress: xx          yy          zz          yz          xz          xy
         13.009814   13.009814   13.009814   -4.156184   4.156184   -4.156184
 Energy
    15.247299
END_CFG


BEGIN_CFG
 Size
    2
 Supercell
   1.745000      1.745000      1.745000
   -1.745000      1.745000      1.745000
   -1.745000      -1.745000      1.745000
 AtomData:  id    type    cartes_x      cartes_y      cartes_z           fx          fy          fz
            1     0       0.000000      0.000000      0.000000           0.000000      0.000000      0.000000
            2     0       -0.872500      0.872500      2.617500           0.000000      0.000000      0.000000
 PlusStress: xx          yy          zz          yz          xz          xy
         13.009814   13.009814   13.009814   -4.156184   4.156184   -4.156184
 Energy
    15.247299
END_CFG


BEGIN_CFG
 Size
    2
 Supercell
   1.745000      1.745000      1.745000
   -1.745000      1.745000      1.745000
   -1.745000      -1.745000      1.745000
 AtomData:  id    type    cartes_x      cartes_y      cartes_z           fx          fy          fz
            1     0       0.000000      0.000000      0.000000           0.000000      0.000000      0.000000
            2     0       -0.872500      0.872500      2.617500           0.000000      0.000000      0.000000
 PlusStress: xx          yy          zz          yz          xz          xy
         13.009814   13.009814   13.009814   -4.156184   4.156184   -4.156184
 Energy
    15.247299
END_CFG


BEGIN_CFG
 Size
    2
 Supercell
   1.745000      1.745000      1.745000
   -1.745000      1.745000      1.745000
   -1.745000      -1.745000      1.745000
 AtomData:  id    type    cartes_x      cartes_y      cartes_z           fx          fy          fz
            1     0       0.000000      0.000000      0.000000           0.000000      0.000000      0.000000
            2     0       -0.872500      0.872500      2.617500           0.000000      0.000000      0.000000
 PlusStress: xx          yy          zz          yz          xz          xy
         13.009814   13.009814   13.009814   -4.156184   4.156184   -4.156184
 Energy
    15.247299
END_CFG


BEGIN_CFG
 Size
    2
 Supercell
   1.745000      1.745000      1.745000
   -1.745000      1.745000      1.745000
   -1.745000      -1.745000      1.745000
 AtomData:  id    type    cartes_x      cartes_y      cartes_z           fx          fy          fz
            1     0       0.000000      0.000000      0.000000           0.000000      0.000000      0.000000
            2     0       -0.872500      0.872500      2.617500           0.000000      0.000000      0.000000
 PlusStress: xx          yy          zz          yz          xz          xy
         13.009814   13.009814   13.009814   -4.156184   4.156184   -4.156184
 Energy
    15.247299
END_CFG


BEGIN_CFG
 Size
    2
 Supercell
   1.745000      1.745000      1.745000
   -1.745000      1.745000      1.745000
   -1.745000      -1.745000      1.745000
 AtomData:  id    type    cartes_x      cartes_y      cartes_z           fx          fy          fz
            1     0       0.000000      0.000000      0.000000           0.000000      0.000000      0.000000
            2     0       -0.872500      0.872500      2.617500           0.000000      0.000000      0.000000
 PlusStress: xx          yy          zz          yz          xz          xy
         13.009814   13.009814   13.009814   -4.156184   4.156184   -4.156184
 Energy
    15.247299
END_CFG


BEGIN_CFG
 Size
    2
 Supercell
   1.745000      1.745000      1.745000
   -1.745000      1.745000      1.745000
   -1.745000      -1.745000      1.745000
 AtomData:  id    type    cartes_x      cartes_y      cartes_z           fx          fy          fz
            1     0       0.000000      0.000000      0.000000           0.000000      0.000000      0.000000
            2     0       -0.872500      0.872500      2.617500           0.000000      0.000000      0.000000
 PlusStress: xx          yy          zz          yz          xz          xy
         13.009814   13.009814   13.009814   -4.156184   4.156184   -4.156184
 Energy
    15.247299
END_CFG


BEGIN_CFG
 Size
    2
 Supercell
   1.745000      1.745000      1.745000
   -1.745000      1.745000      1.745000
   -1.745000      -1.745000      1.745000
 AtomData:  id    type    cartes_x      cartes_y      cartes_z           fx          fy          fz
            1     0       0.000000      0.000000      0.000000           0.000000      0.000000      0.000000
            2     0       -0.872500      0.872500      2.617500           0.000000      0.000000      0.000000
 PlusStress: xx          yy          zz          yz          xz          xy
         13.009814   13.009814   13.009814   -4.156184   4.156184   -4.156184
 Energy
    15.247299
END_CFG

