[Mac:25658] shmem: mmap: an error occurred while determining whether or not /var/folders/hy/k_vp1md94sz2dr40dtrs6ln80000gn/T//ompi.Mac.501/jf.0/467861504/sm_segment.Mac.501.1be30000.0 could be created.

     Program PWSCF v.7.3.1 starts on 21Jan2025 at  8:13:34 

     This program is part of the open-source Quantum ESPRESSO suite
     for quantum simulation of materials; please cite
         "P. Giannozzi et al., J. Phys.:Condens. Matter 21 395502 (2009);
         "P. Giannozzi et al., J. Phys.:Condens. Matter 29 465901 (2017);
         "P. Giannozzi et al., J. Chem. Phys. 152 154105 (2020);
          URL http://www.quantum-espresso.org", 
     in publications or presentations arising from this work. More details at
     http://www.quantum-espresso.org/quote

     Parallel version (MPI), running on     1 processors

     MPI processes distributed on     1 nodes
     0 MiB available memory on the printing compute node when the environment starts

     Reading input from Li_config_8.in

     Current dimensions of program PWSCF are:
     Max number of different atomic species (ntypx) = 10
     Max number of k-points (npk) =  40000
     Max angular momentum in pseudopotentials (lmaxx) =  4

     Subspace diagonalization in iterative solution of the eigenvalue problem:
     a serial algorithm will be used


     G-vector sticks info
     --------------------
     sticks:   dense  smooth     PW     G-vecs:    dense   smooth      PW
     Sum        2477     989    293                93285    23583    3887

     Using Slab Decomposition



     bravais-lattice index     =            1
     lattice parameter (alat)  =      10.2114  a.u.
     unit-cell volume          =    1064.7664 (a.u.)^3
     number of atoms/cell      =            2
     number of atomic types    =            1
     number of electrons       =         6.00
     number of Kohn-Sham states=            7
     kinetic-energy cutoff     =      30.0000  Ry
     charge density cutoff     =     300.0000  Ry
     scf convergence threshold =      1.0E-08
     mixing beta               =       0.7000
     number of iterations used =            8  plain     mixing
     Exchange-correlation= SLA  PW   PBX  PBC
                           (   1   4   3   4   0   0   0)

     celldm(1)=  10.211388  celldm(2)=   0.000000  celldm(3)=   0.000000
     celldm(4)=   0.000000  celldm(5)=   0.000000  celldm(6)=   0.000000

     crystal axes: (cart. coord. in units of alat)
               a(1) = (   1.000000   0.000000   0.000000 )  
               a(2) = (   0.000000   1.000000   0.000000 )  
               a(3) = (   0.000000   0.000000   1.000000 )  

     reciprocal axes: (cart. coord. in units 2 pi/alat)
               b(1) = (  1.000000  0.000000  0.000000 )  
               b(2) = (  0.000000  1.000000  0.000000 )  
               b(3) = (  0.000000  0.000000  1.000000 )  


     PseudoPot. # 1 for Li read from file:
     ../pseudopotentials/Li.pbe-s-kjpaw_psl.1.0.0.UPF
     MD5 check sum: d3662511b3860c829f7212fdb89d6128
     Pseudo is Projector augmented-wave, Zval =  3.0
     Generated using &quot;atomic&quot; code by A. Dal Corso  v.6.3
     Shape of augmentation charge: PSQ
     Using radial grid of 1017 points,  4 beta functions with: 
                l(1) =   0
                l(2) =   0
                l(3) =   1
                l(4) =   1
     Q(r) pseudized with 0 coefficients 


     atomic species   valence    mass     pseudopotential
     Li                3.00     6.94000     Li( 1.00)

     No symmetry found



   Cartesian axes

     site n.     atom                  positions (alat units)
         1        Li     tau(   1) = (   0.0311420   0.0183710   0.0037400  )
         2        Li     tau(   2) = (   0.5440690   0.5279320   0.5005780  )

     number of k points=    36  Gaussian smearing, width (Ry)=  0.0100
                       cart. coord. in units 2pi/alat
        k(    1) = (   0.0000000   0.0000000   0.0000000), wk =   0.0312500
        k(    2) = (   0.0000000   0.0000000   0.2500000), wk =   0.0625000
        k(    3) = (   0.0000000   0.0000000  -0.5000000), wk =   0.0312500
        k(    4) = (   0.0000000   0.2500000   0.2500000), wk =   0.0625000
        k(    5) = (   0.0000000   0.2500000  -0.5000000), wk =   0.0625000
        k(    6) = (   0.0000000  -0.5000000  -0.5000000), wk =   0.0312500
        k(    7) = (   0.2500000   0.2500000   0.2500000), wk =   0.0625000
        k(    8) = (   0.2500000   0.2500000  -0.5000000), wk =   0.0625000
        k(    9) = (   0.2500000  -0.5000000  -0.5000000), wk =   0.0625000
        k(   10) = (  -0.5000000  -0.5000000  -0.5000000), wk =   0.0312500
        k(   11) = (   0.2500000   0.0000000   0.0000000), wk =   0.0625000
        k(   12) = (   0.0000000   0.2500000   0.0000000), wk =   0.0625000
        k(   13) = (  -0.5000000   0.0000000   0.0000000), wk =   0.0312500
        k(   14) = (   0.0000000  -0.5000000   0.0000000), wk =   0.0312500
        k(   15) = (   0.0000000  -0.2500000   0.2500000), wk =   0.0625000
        k(   16) = (   0.2500000   0.0000000  -0.2500000), wk =   0.0625000
        k(   17) = (  -0.2500000   0.0000000  -0.2500000), wk =   0.0625000
        k(   18) = (   0.2500000  -0.2500000   0.0000000), wk =   0.0625000
        k(   19) = (  -0.2500000  -0.2500000   0.0000000), wk =   0.0625000
        k(   20) = (   0.2500000   0.0000000   0.5000000), wk =   0.0625000
        k(   21) = (  -0.5000000  -0.2500000   0.0000000), wk =   0.0625000
        k(   22) = (   0.0000000  -0.5000000   0.2500000), wk =   0.0625000
        k(   23) = (   0.2500000  -0.5000000   0.0000000), wk =   0.0625000
        k(   24) = (  -0.5000000   0.0000000   0.2500000), wk =   0.0625000
        k(   25) = (  -0.5000000   0.0000000   0.5000000), wk =   0.0312500
        k(   26) = (  -0.5000000   0.5000000   0.0000000), wk =   0.0312500
        k(   27) = (  -0.2500000  -0.2500000   0.2500000), wk =   0.0625000
        k(   28) = (  -0.2500000   0.2500000  -0.2500000), wk =   0.0625000
        k(   29) = (   0.2500000  -0.2500000  -0.2500000), wk =   0.0625000
        k(   30) = (  -0.2500000   0.2500000   0.5000000), wk =   0.0625000
        k(   31) = (  -0.5000000  -0.2500000   0.2500000), wk =   0.0625000
        k(   32) = (   0.5000000  -0.2500000  -0.2500000), wk =   0.0625000
        k(   33) = (  -0.2500000  -0.5000000   0.2500000), wk =   0.0625000
        k(   34) = (  -0.2500000   0.5000000  -0.2500000), wk =   0.0625000
        k(   35) = (  -0.5000000   0.2500000   0.5000000), wk =   0.0625000
        k(   36) = (  -0.5000000   0.5000000   0.2500000), wk =   0.0625000

     Dense  grid:    93285 G-vectors     FFT dimensions: (  60,  60,  60)

     Smooth grid:    23583 G-vectors     FFT dimensions: (  36,  36,  36)

     Estimated max dynamical RAM per process >     137.06 MB

     Initial potential from superposition of free atoms

     starting charge       5.9908, renormalised to       6.0000
     Starting wfcs are   10 randomized atomic wfcs
     Checking if some PAW data can be deallocated... 

     total cpu time spent up to now is        0.5 secs

     Self-consistent Calculation

     iteration #  1     ecut=    30.00 Ry     beta= 0.70
     Davidson diagonalization with overlap
     ethr =  1.00E-02,  avg # of iterations =  2.0

     Threshold (ethr) on eigenvalues was too large:
     Diagonalizing with lowered threshold

     Davidson diagonalization with overlap
     ethr =  2.65E-04,  avg # of iterations =  1.5

     total cpu time spent up to now is        1.6 secs

     total energy              =     -29.81271960 Ry
     estimated scf accuracy    <       0.01639993 Ry

     iteration #  2     ecut=    30.00 Ry     beta= 0.70
     Davidson diagonalization with overlap
     ethr =  2.73E-04,  avg # of iterations =  1.0

     total cpu time spent up to now is        2.1 secs

     total energy              =     -29.81343359 Ry
     estimated scf accuracy    <       0.00096894 Ry

     iteration #  3     ecut=    30.00 Ry     beta= 0.70
     Davidson diagonalization with overlap
     ethr =  1.61E-05,  avg # of iterations =  2.5

     total cpu time spent up to now is        2.7 secs

     total energy              =     -29.81354085 Ry
     estimated scf accuracy    <       0.00001147 Ry

     iteration #  4     ecut=    30.00 Ry     beta= 0.70
     Davidson diagonalization with overlap
     ethr =  1.91E-07,  avg # of iterations =  3.8

     total cpu time spent up to now is        3.4 secs

     total energy              =     -29.81354394 Ry
     estimated scf accuracy    <       0.00000011 Ry

     iteration #  5     ecut=    30.00 Ry     beta= 0.70
     Davidson diagonalization with overlap
     ethr =  1.81E-09,  avg # of iterations =  2.9

     total cpu time spent up to now is        4.1 secs

     End of self-consistent calculation

          k = 0.0000 0.0000 0.0000 (  2945 PWs)   bands (ev):

   -51.1803 -51.1617  -3.2265   0.7918   0.7926   0.7941   1.7223

          k = 0.0000 0.0000 0.2500 (  2962 PWs)   bands (ev):

   -51.1794 -51.1730  -2.9368  -0.6584   1.0817   1.0832   1.9938

          k = 0.0000 0.0000-0.5000 (  2906 PWs)   bands (ev):

   -51.1535 -51.1504  -2.0756  -2.0651   1.9043   1.9138   1.9281

          k = 0.0000 0.2500 0.2500 (  2961 PWs)   bands (ev):

   -51.1770 -51.1736  -2.6476  -0.4666  -0.2717   1.3605   1.8132

          k = 0.0000 0.2500-0.5000 (  2938 PWs)   bands (ev):

   -51.1650 -51.1648  -1.7910  -1.7803   0.4796   0.4938   2.1228

          k = 0.0000-0.5000-0.5000 (  2968 PWs)   bands (ev):

   -51.1772 -51.1770  -1.0667  -1.0652  -0.7664  -0.7648   2.4292

          k = 0.2500 0.2500 0.2500 (  2968 PWs)   bands (ev):

   -51.1858 -51.1697  -2.3596  -0.1600  -0.1590   0.0637   1.8481

          k = 0.2500 0.2500-0.5000 (  2952 PWs)   bands (ev):

   -51.1711 -51.1703  -1.5045  -1.4933   0.7393   0.7582   0.7657

          k = 0.2500-0.5000-0.5000 (  2980 PWs)   bands (ev):

   -51.1829 -51.1826  -0.7574  -0.7555  -0.5118  -0.5097   1.4484

          k =-0.5000-0.5000-0.5000 (  3016 PWs)   bands (ev):

   -51.1987 -51.1985   0.1085   0.1198   0.1589   0.1798   0.2283

          k = 0.2500 0.0000 0.0000 (  2962 PWs)   bands (ev):

   -51.1825 -51.1700  -2.9368  -0.6579   1.0808   1.0817   1.9959

          k = 0.0000 0.2500 0.0000 (  2962 PWs)   bands (ev):

   -51.1812 -51.1713  -2.9368  -0.6581   1.0809   1.0827   1.9949

          k =-0.5000 0.0000 0.0000 (  2906 PWs)   bands (ev):

   -51.1590 -51.1449  -2.0915  -2.0488   1.8695   1.8706   1.9662

          k = 0.0000-0.5000 0.0000 (  2906 PWs)   bands (ev):

   -51.1569 -51.1470  -2.0860  -2.0545   1.8813   1.8864   1.9520

          k = 0.0000-0.2500 0.2500 (  2961 PWs)   bands (ev):

   -51.1787 -51.1720  -2.6477  -0.4665  -0.2717   1.3605   1.8124

          k = 0.2500 0.0000-0.2500 (  2961 PWs)   bands (ev):

   -51.1796 -51.1710  -2.6477  -0.4663  -0.2717   1.3597   1.8118

          k =-0.2500 0.0000-0.2500 (  2961 PWs)   bands (ev):

   -51.1779 -51.1727  -2.6477  -0.4664  -0.2717   1.3597   1.8129

          k = 0.2500-0.2500 0.0000 (  2961 PWs)   bands (ev):

   -51.1766 -51.1741  -2.6476  -0.4663  -0.2717   1.3588   1.8136

          k =-0.2500-0.2500 0.0000 (  2961 PWs)   bands (ev):

   -51.1815 -51.1692  -2.6478  -0.4660  -0.2716   1.3589   1.8102

          k = 0.2500 0.0000 0.5000 (  2938 PWs)   bands (ev):

   -51.1650 -51.1648  -1.7910  -1.7803   0.4798   0.4940   2.1228

          k =-0.5000-0.2500 0.0000 (  2938 PWs)   bands (ev):

   -51.1653 -51.1646  -1.8072  -1.7636   0.4580   0.5157   2.0878

          k = 0.0000-0.5000 0.2500 (  2938 PWs)   bands (ev):

   -51.1650 -51.1648  -1.8016  -1.7694   0.4652   0.5079   2.0996

          k = 0.2500-0.5000 0.0000 (  2938 PWs)   bands (ev):

   -51.1652 -51.1647  -1.8016  -1.7694   0.4656   0.5083   2.0992

          k =-0.5000 0.0000 0.2500 (  2938 PWs)   bands (ev):

   -51.1651 -51.1648  -1.8071  -1.7636   0.4577   0.5155   2.0876

          k =-0.5000 0.0000 0.5000 (  2968 PWs)   bands (ev):

   -51.1772 -51.1770  -1.0676  -1.0657  -0.7658  -0.7637   2.4283

          k =-0.5000 0.5000 0.0000 (  2968 PWs)   bands (ev):

   -51.1772 -51.1770  -1.0703  -1.0645  -0.7670  -0.7606   2.4305

          k =-0.2500-0.2500 0.2500 (  2968 PWs)   bands (ev):

   -51.1866 -51.1689  -2.3597  -0.1598  -0.1590   0.0637   1.8471

          k =-0.2500 0.2500-0.2500 (  2968 PWs)   bands (ev):

   -51.1848 -51.1707  -2.3596  -0.1598  -0.1594   0.0635   1.8493

          k = 0.2500-0.2500-0.2500 (  2968 PWs)   bands (ev):

   -51.1849 -51.1706  -2.3596  -0.1599  -0.1593   0.0635   1.8492

          k =-0.2500 0.2500 0.5000 (  2952 PWs)   bands (ev):

   -51.1709 -51.1706  -1.5044  -1.4933   0.7271   0.7416   0.7779

          k =-0.5000-0.2500 0.2500 (  2952 PWs)   bands (ev):

   -51.1720 -51.1695  -1.5213  -1.4758   0.7058   0.7471   0.7768

          k = 0.5000-0.2500-0.2500 (  2952 PWs)   bands (ev):

   -51.1717 -51.1697  -1.5213  -1.4758   0.7048   0.7454   0.7784

          k =-0.2500-0.5000 0.2500 (  2952 PWs)   bands (ev):

   -51.1717 -51.1697  -1.5156  -1.4819   0.7176   0.7501   0.7741

          k =-0.2500 0.5000-0.2500 (  2952 PWs)   bands (ev):

   -51.1714 -51.1700  -1.5155  -1.4819   0.7135   0.7487   0.7767

          k =-0.5000 0.2500 0.5000 (  2980 PWs)   bands (ev):

   -51.1830 -51.1826  -0.7586  -0.7560  -0.5109  -0.5082   1.4450

          k =-0.5000 0.5000 0.2500 (  2980 PWs)   bands (ev):

   -51.1832 -51.1823  -0.7621  -0.7544  -0.5126  -0.5041   1.4383

     the Fermi energy is    -1.5501 ev

!    total energy              =     -29.81354405 Ry
     total all-electron energy =       -29.813567 Ry
     estimated scf accuracy    <          1.5E-09 Ry
     smearing contrib. (-TS)   =      -0.00192875 Ry
     internal energy E=F+TS    =     -29.81161529 Ry

     The total energy is F=E-TS. E is the sum of the following terms:
     one-electron contribution =     -26.40490860 Ry
     hartree contribution      =       9.60863729 Ry
     xc contribution           =      -6.74522916 Ry
     ewald contribution        =      -6.41402298 Ry
     one-center paw contrib.   =       0.14390816 Ry

     convergence has been achieved in   5 iterations

     Forces acting on atoms (cartesian axes, Ry/au):

     atom    1 type  1   force =    -0.00033083   -0.00025417    0.00007618
     atom    2 type  1   force =     0.00033083    0.00025417   -0.00007618

     Total force =     0.000600     Total SCF correction =     0.000004


     Computing stress (Cartesian axis) and pressure

          total   stress  (Ry/bohr**3)                   (kbar)     P=      -72.66
  -0.00049378   0.00000001  -0.00000000          -72.64        0.00       -0.00
   0.00000001  -0.00049390  -0.00000000            0.00      -72.66       -0.00
  -0.00000000  -0.00000000  -0.00049404           -0.00       -0.00      -72.68


     Writing all to output data dir ./tmp/Li_config_8.save/ :
     XML data file, charge density, pseudopotentials, collected wavefunctions

     init_run     :      0.42s CPU      0.45s WALL (       1 calls)
     electrons    :      3.39s CPU      3.57s WALL (       1 calls)
     forces       :      0.07s CPU      0.08s WALL (       1 calls)
     stress       :      0.38s CPU      0.40s WALL (       1 calls)

     Called by init_run:
     wfcinit      :      0.24s CPU      0.25s WALL (       1 calls)
     potinit      :      0.07s CPU      0.08s WALL (       1 calls)
     hinit0       :      0.07s CPU      0.08s WALL (       1 calls)

     Called by electrons:
     c_bands      :      2.34s CPU      2.46s WALL (       6 calls)
     sum_band     :      0.61s CPU      0.63s WALL (       6 calls)
     v_of_rho     :      0.23s CPU      0.25s WALL (       6 calls)
     newd         :      0.13s CPU      0.15s WALL (       6 calls)
     PAW_pot      :      0.13s CPU      0.13s WALL (       6 calls)
     mix_rho      :      0.02s CPU      0.02s WALL (       6 calls)

     Called by c_bands:
     init_us_2    :      0.09s CPU      0.10s WALL (     540 calls)
     cegterg      :      2.25s CPU      2.37s WALL (     216 calls)

     Called by *egterg:
     cdiaghg      :      0.02s CPU      0.02s WALL (     673 calls)
     h_psi        :      2.09s CPU      2.15s WALL (     745 calls)
     s_psi        :      0.05s CPU      0.06s WALL (     745 calls)
     g_psi        :      0.01s CPU      0.01s WALL (     493 calls)

     Called by h_psi:
     h_psi:calbec :      0.08s CPU      0.10s WALL (     745 calls)
     vloc_psi     :      1.95s CPU      1.97s WALL (     745 calls)
     add_vuspsi   :      0.06s CPU      0.07s WALL (     745 calls)

     General routines
     calbec       :      0.13s CPU      0.16s WALL (    1141 calls)
     fft          :      0.13s CPU      0.13s WALL (      85 calls)
     ffts         :      0.01s CPU      0.01s WALL (      12 calls)
     fftw         :      1.82s CPU      1.83s WALL (    9806 calls)
     interpolate  :      0.01s CPU      0.02s WALL (       6 calls)

     Parallel routines

     PWSCF        :      4.30s CPU      4.55s WALL


   This run was terminated on:   8:13:38  21Jan2025            

=------------------------------------------------------------------------------=
   JOB DONE.
=------------------------------------------------------------------------------=
Note: The following floating-point exceptions are signalling: IEEE_INVALID_FLAG IEEE_DIVIDE_BY_ZERO IEEE_OVERFLOW_FLAG IEEE_UNDERFLOW_FLAG
