[Mac:25647] shmem: mmap: an error occurred while determining whether or not /var/folders/hy/k_vp1md94sz2dr40dtrs6ln80000gn/T//ompi.Mac.501/jf.0/975634432/sm_segment.Mac.501.3a270000.0 could be created.

     Program PWSCF v.7.3.1 starts on 21Jan2025 at  8:13:23 

     This program is part of the open-source Quantum ESPRESSO suite
     for quantum simulation of materials; please cite
         "P. Giannozzi et al., J. Phys.:Condens. Matter 21 395502 (2009);
         "P. Giannozzi et al., J. Phys.:Condens. Matter 29 465901 (2017);
         "P. Giannozzi et al., J. Chem. Phys. 152 154105 (2020);
          URL http://www.quantum-espresso.org", 
     in publications or presentations arising from this work. More details at
     http://www.quantum-espresso.org/quote

     Parallel version (MPI), running on     1 processors

     MPI processes distributed on     1 nodes
     0 MiB available memory on the printing compute node when the environment starts

     Reading input from Li_config_6.in

     Current dimensions of program PWSCF are:
     Max number of different atomic species (ntypx) = 10
     Max number of k-points (npk) =  40000
     Max angular momentum in pseudopotentials (lmaxx) =  4

     Subspace diagonalization in iterative solution of the eigenvalue problem:
     a serial algorithm will be used


     G-vector sticks info
     --------------------
     sticks:   dense  smooth     PW     G-vecs:    dense   smooth      PW
     Sum        2617    1049    317               101313    25677    4169

     Using Slab Decomposition



     bravais-lattice index     =            1
     lattice parameter (alat)  =      10.4935  a.u.
     unit-cell volume          =    1155.4646 (a.u.)^3
     number of atoms/cell      =            2
     number of atomic types    =            1
     number of electrons       =         6.00
     number of Kohn-Sham states=            7
     kinetic-energy cutoff     =      30.0000  Ry
     charge density cutoff     =     300.0000  Ry
     scf convergence threshold =      1.0E-08
     mixing beta               =       0.7000
     number of iterations used =            8  plain     mixing
     Exchange-correlation= SLA  PW   PBX  PBC
                           (   1   4   3   4   0   0   0)

     celldm(1)=  10.493464  celldm(2)=   0.000000  celldm(3)=   0.000000
     celldm(4)=   0.000000  celldm(5)=   0.000000  celldm(6)=   0.000000

     crystal axes: (cart. coord. in units of alat)
               a(1) = (   1.000000   0.000000   0.000000 )  
               a(2) = (   0.000000   1.000000   0.000000 )  
               a(3) = (   0.000000   0.000000   1.000000 )  

     reciprocal axes: (cart. coord. in units 2 pi/alat)
               b(1) = (  1.000000  0.000000  0.000000 )  
               b(2) = (  0.000000  1.000000  0.000000 )  
               b(3) = (  0.000000  0.000000  1.000000 )  


     PseudoPot. # 1 for Li read from file:
     ../pseudopotentials/Li.pbe-s-kjpaw_psl.1.0.0.UPF
     MD5 check sum: d3662511b3860c829f7212fdb89d6128
     Pseudo is Projector augmented-wave, Zval =  3.0
     Generated using &quot;atomic&quot; code by A. Dal Corso  v.6.3
     Shape of augmentation charge: PSQ
     Using radial grid of 1017 points,  4 beta functions with: 
                l(1) =   0
                l(2) =   0
                l(3) =   1
                l(4) =   1
     Q(r) pseudized with 0 coefficients 


     atomic species   valence    mass     pseudopotential
     Li                3.00     6.94000     Li( 1.00)

     No symmetry found



   Cartesian axes

     site n.     atom                  positions (alat units)
         1        Li     tau(   1) = (   0.0182410   0.9558380   0.0088370  )
         2        Li     tau(   2) = (   0.5188810   0.5452230   0.4761200  )

     number of k points=    36  Gaussian smearing, width (Ry)=  0.0100
                       cart. coord. in units 2pi/alat
        k(    1) = (   0.0000000   0.0000000   0.0000000), wk =   0.0312500
        k(    2) = (   0.0000000   0.0000000   0.2500000), wk =   0.0625000
        k(    3) = (   0.0000000   0.0000000  -0.5000000), wk =   0.0312500
        k(    4) = (   0.0000000   0.2500000   0.2500000), wk =   0.0625000
        k(    5) = (   0.0000000   0.2500000  -0.5000000), wk =   0.0625000
        k(    6) = (   0.0000000  -0.5000000  -0.5000000), wk =   0.0312500
        k(    7) = (   0.2500000   0.2500000   0.2500000), wk =   0.0625000
        k(    8) = (   0.2500000   0.2500000  -0.5000000), wk =   0.0625000
        k(    9) = (   0.2500000  -0.5000000  -0.5000000), wk =   0.0625000
        k(   10) = (  -0.5000000  -0.5000000  -0.5000000), wk =   0.0312500
        k(   11) = (   0.2500000   0.0000000   0.0000000), wk =   0.0625000
        k(   12) = (   0.0000000   0.2500000   0.0000000), wk =   0.0625000
        k(   13) = (  -0.5000000   0.0000000   0.0000000), wk =   0.0312500
        k(   14) = (   0.0000000  -0.5000000   0.0000000), wk =   0.0312500
        k(   15) = (   0.0000000  -0.2500000   0.2500000), wk =   0.0625000
        k(   16) = (   0.2500000   0.0000000  -0.2500000), wk =   0.0625000
        k(   17) = (  -0.2500000   0.0000000  -0.2500000), wk =   0.0625000
        k(   18) = (   0.2500000  -0.2500000   0.0000000), wk =   0.0625000
        k(   19) = (  -0.2500000  -0.2500000   0.0000000), wk =   0.0625000
        k(   20) = (   0.2500000   0.0000000   0.5000000), wk =   0.0625000
        k(   21) = (  -0.5000000  -0.2500000   0.0000000), wk =   0.0625000
        k(   22) = (   0.0000000  -0.5000000   0.2500000), wk =   0.0625000
        k(   23) = (   0.2500000  -0.5000000   0.0000000), wk =   0.0625000
        k(   24) = (  -0.5000000   0.0000000   0.2500000), wk =   0.0625000
        k(   25) = (  -0.5000000   0.0000000   0.5000000), wk =   0.0312500
        k(   26) = (  -0.5000000   0.5000000   0.0000000), wk =   0.0312500
        k(   27) = (  -0.2500000  -0.2500000   0.2500000), wk =   0.0625000
        k(   28) = (  -0.2500000   0.2500000  -0.2500000), wk =   0.0625000
        k(   29) = (   0.2500000  -0.2500000  -0.2500000), wk =   0.0625000
        k(   30) = (  -0.2500000   0.2500000   0.5000000), wk =   0.0625000
        k(   31) = (  -0.5000000  -0.2500000   0.2500000), wk =   0.0625000
        k(   32) = (   0.5000000  -0.2500000  -0.2500000), wk =   0.0625000
        k(   33) = (  -0.2500000  -0.5000000   0.2500000), wk =   0.0625000
        k(   34) = (  -0.2500000   0.5000000  -0.2500000), wk =   0.0625000
        k(   35) = (  -0.5000000   0.2500000   0.5000000), wk =   0.0625000
        k(   36) = (  -0.5000000   0.5000000   0.2500000), wk =   0.0625000

     Dense  grid:   101313 G-vectors     FFT dimensions: (  60,  60,  60)

     Smooth grid:    25677 G-vectors     FFT dimensions: (  40,  40,  40)

     Estimated max dynamical RAM per process >     147.53 MB

     Initial potential from superposition of free atoms

     starting charge       5.9908, renormalised to       6.0000
     Starting wfcs are   10 randomized atomic wfcs
     Checking if some PAW data can be deallocated... 

     total cpu time spent up to now is        0.5 secs

     Self-consistent Calculation

     iteration #  1     ecut=    30.00 Ry     beta= 0.70
     Davidson diagonalization with overlap
     ethr =  1.00E-02,  avg # of iterations =  2.0

     Threshold (ethr) on eigenvalues was too large:
     Diagonalizing with lowered threshold

     Davidson diagonalization with overlap
     ethr =  2.79E-04,  avg # of iterations =  1.4

     total cpu time spent up to now is        1.9 secs

     total energy              =     -29.80281379 Ry
     estimated scf accuracy    <       0.01738291 Ry

     iteration #  2     ecut=    30.00 Ry     beta= 0.70
     Davidson diagonalization with overlap
     ethr =  2.90E-04,  avg # of iterations =  1.0

     total cpu time spent up to now is        2.5 secs

     total energy              =     -29.80360912 Ry
     estimated scf accuracy    <       0.00102565 Ry

     iteration #  3     ecut=    30.00 Ry     beta= 0.70
     Davidson diagonalization with overlap
     ethr =  1.71E-05,  avg # of iterations =  2.3

     total cpu time spent up to now is        3.2 secs

     total energy              =     -29.80373049 Ry
     estimated scf accuracy    <       0.00001443 Ry

     iteration #  4     ecut=    30.00 Ry     beta= 0.70
     Davidson diagonalization with overlap
     c_bands:  1 eigenvalues not converged
     ethr =  2.41E-07,  avg # of iterations =  4.7

     total cpu time spent up to now is        4.1 secs

     total energy              =     -29.80373510 Ry
     estimated scf accuracy    <       0.00000024 Ry

     iteration #  5     ecut=    30.00 Ry     beta= 0.70
     Davidson diagonalization with overlap
     ethr =  3.97E-09,  avg # of iterations =  2.6

     total cpu time spent up to now is        4.8 secs

     End of self-consistent calculation

          k = 0.0000 0.0000 0.0000 (  3191 PWs)   bands (ev):

   -51.3314 -51.3147  -3.2132   0.5892   0.6002   0.6874   1.2975

          k = 0.0000 0.0000 0.2500 (  3202 PWs)   bands (ev):

   -51.3324 -51.3230  -2.9389  -0.7775   0.8605   0.9447   1.5614

          k = 0.0000 0.0000-0.5000 (  3218 PWs)   bands (ev):

   -51.3351 -51.3329  -2.1729  -2.0630   1.5299   1.5395   1.7023

          k = 0.0000 0.2500 0.2500 (  3215 PWs)   bands (ev):

   -51.3369 -51.3293  -2.6680  -0.5606  -0.4384   1.1064   1.5559

          k = 0.0000 0.2500-0.5000 (  3196 PWs)   bands (ev):

   -51.3309 -51.3191  -1.9058  -1.7931   0.2464   0.3884   1.7408

          k = 0.0000-0.5000-0.5000 (  3216 PWs)   bands (ev):

   -51.3362 -51.3324  -1.2678  -1.1634  -0.8738  -0.7590   2.0479

          k = 0.2500 0.2500 0.2500 (  3197 PWs)   bands (ev):

   -51.3314 -51.3211  -2.3940  -0.2954  -0.2640  -0.1570   1.5604

          k = 0.2500 0.2500-0.5000 (  3212 PWs)   bands (ev):

   -51.3351 -51.3298  -1.6367  -1.5196   0.4403   0.4728   0.6169

          k = 0.2500-0.5000-0.5000 (  3220 PWs)   bands (ev):

   -51.3368 -51.3357  -0.9987  -0.8831  -0.6179  -0.4939   1.0273

          k =-0.5000-0.5000-0.5000 (  3184 PWs)   bands (ev):

   -51.3226 -51.3222  -0.2614  -0.2597  -0.0086  -0.0067   0.1268

          k = 0.2500 0.0000 0.0000 (  3202 PWs)   bands (ev):

   -51.3283 -51.3271  -2.9386  -0.7818   0.8716   0.9500   1.5523

          k = 0.0000 0.2500 0.0000 (  3202 PWs)   bands (ev):

   -51.3293 -51.3261  -2.9410  -0.7516   0.8461   0.8579   1.6367

          k =-0.5000 0.0000 0.0000 (  3218 PWs)   bands (ev):

   -51.3340 -51.3339  -2.1206  -2.1184   1.5911   1.5960   1.6724

          k = 0.0000-0.5000 0.0000 (  3218 PWs)   bands (ev):

   -51.3356 -51.3324  -2.2585  -1.9577   1.3653   1.3696   1.9764

          k = 0.0000-0.2500 0.2500 (  3215 PWs)   bands (ev):

   -51.3352 -51.3311  -2.6685  -0.5529  -0.4395   1.1091   1.4986

          k = 0.2500 0.0000-0.2500 (  3215 PWs)   bands (ev):

   -51.3359 -51.3304  -2.6653  -0.5727  -0.4457   1.1866   1.5613

          k =-0.2500 0.0000-0.2500 (  3215 PWs)   bands (ev):

   -51.3357 -51.3305  -2.6653  -0.5728  -0.4458   1.1866   1.5619

          k = 0.2500-0.2500 0.0000 (  3215 PWs)   bands (ev):

   -51.3384 -51.3278  -2.6681  -0.5600  -0.4388   1.1192   1.5294

          k =-0.2500-0.2500 0.0000 (  3215 PWs)   bands (ev):

   -51.3384 -51.3279  -2.6681  -0.5599  -0.4388   1.1192   1.5282

          k = 0.2500 0.0000 0.5000 (  3196 PWs)   bands (ev):

   -51.3286 -51.3215  -1.9025  -1.7892   0.2207   0.3652   1.7743

          k =-0.5000-0.2500 0.0000 (  3196 PWs)   bands (ev):

   -51.3252 -51.3249  -1.8522  -1.8500   0.3146   0.3174   1.8426

          k = 0.0000-0.5000 0.2500 (  3196 PWs)   bands (ev):

   -51.3330 -51.3171  -1.9912  -1.6810   0.1105   0.4983   1.5945

          k = 0.2500-0.5000 0.0000 (  3196 PWs)   bands (ev):

   -51.3282 -51.3219  -1.9907  -1.6806   0.1066   0.4953   1.6048

          k =-0.5000 0.0000 0.2500 (  3196 PWs)   bands (ev):

   -51.3252 -51.3248  -1.8491  -1.8468   0.2937   0.2965   1.8475

          k =-0.5000 0.0000 0.5000 (  3216 PWs)   bands (ev):

   -51.3344 -51.3342  -1.1526  -1.1514  -0.9030  -0.9017   2.1405

          k =-0.5000 0.5000 0.0000 (  3216 PWs)   bands (ev):

   -51.3344 -51.3342  -1.2166  -1.2145  -0.8207  -0.8184   2.1079

          k =-0.2500-0.2500 0.2500 (  3197 PWs)   bands (ev):

   -51.3274 -51.3251  -2.3948  -0.2959  -0.2568  -0.1565   1.5293

          k =-0.2500 0.2500-0.2500 (  3197 PWs)   bands (ev):

   -51.3273 -51.3252  -2.3947  -0.2960  -0.2568  -0.1565   1.5300

          k = 0.2500-0.2500-0.2500 (  3197 PWs)   bands (ev):

   -51.3315 -51.3210  -2.3940  -0.2953  -0.2642  -0.1570   1.5609

          k =-0.2500 0.2500 0.5000 (  3212 PWs)   bands (ev):

   -51.3351 -51.3298  -1.6367  -1.5196   0.4393   0.4719   0.6180

          k =-0.5000-0.2500 0.2500 (  3212 PWs)   bands (ev):

   -51.3326 -51.3323  -1.5820  -1.5797   0.5044   0.5050   0.6208

          k = 0.5000-0.2500-0.2500 (  3212 PWs)   bands (ev):

   -51.3325 -51.3323  -1.5810  -1.5787   0.4585   0.4593   0.6697

          k =-0.2500-0.5000 0.2500 (  3212 PWs)   bands (ev):

   -51.3344 -51.3305  -1.7247  -1.4035   0.3054   0.4192   0.6405

          k =-0.2500 0.5000-0.2500 (  3212 PWs)   bands (ev):

   -51.3343 -51.3305  -1.7247  -1.4035   0.3052   0.4191   0.6408

          k =-0.5000 0.2500 0.5000 (  3220 PWs)   bands (ev):

   -51.3364 -51.3361  -0.8756  -0.8741  -0.6549  -0.6533   1.1908

          k =-0.5000 0.5000 0.2500 (  3220 PWs)   bands (ev):

   -51.3363 -51.3362  -0.9437  -0.9414  -0.5599  -0.5575   1.1007

     the Fermi energy is    -1.6293 ev

!    total energy              =     -29.80373532 Ry
     total all-electron energy =       -29.803758 Ry
     estimated scf accuracy    <          4.0E-09 Ry
     smearing contrib. (-TS)   =      -0.00184264 Ry
     internal energy E=F+TS    =     -29.80189268 Ry

     The total energy is F=E-TS. E is the sum of the following terms:
     one-electron contribution =     -26.74433507 Ry
     hartree contribution      =       9.74652630 Ry
     xc contribution           =      -6.73759352 Ry
     ewald contribution        =      -6.21044048 Ry
     one-center paw contrib.   =       0.14395010 Ry

     convergence has been achieved in   5 iterations

     Forces acting on atoms (cartesian axes, Ry/au):

     atom    1 type  1   force =    -0.00001434   -0.00229078    0.00082960
     atom    2 type  1   force =     0.00001434    0.00229078   -0.00082960

     Total force =     0.003446     Total SCF correction =     0.000036


     Computing stress (Cartesian axis) and pressure

          total   stress  (Ry/bohr**3)                   (kbar)     P=      -66.54
  -0.00045551  -0.00000001   0.00000000          -67.01       -0.00        0.00
  -0.00000001  -0.00044739   0.00000031           -0.00      -65.81        0.05
   0.00000000   0.00000031  -0.00045400            0.00        0.05      -66.79


     Writing all to output data dir ./tmp/Li_config_6.save/ :
     XML data file, charge density, pseudopotentials, collected wavefunctions

     init_run     :      0.48s CPU      0.51s WALL (       1 calls)
     electrons    :      4.03s CPU      4.22s WALL (       1 calls)
     forces       :      0.08s CPU      0.09s WALL (       1 calls)
     stress       :      0.41s CPU      0.43s WALL (       1 calls)

     Called by init_run:
     wfcinit      :      0.29s CPU      0.31s WALL (       1 calls)
     potinit      :      0.07s CPU      0.08s WALL (       1 calls)
     hinit0       :      0.07s CPU      0.08s WALL (       1 calls)

     Called by electrons:
     c_bands      :      2.86s CPU      2.99s WALL (       6 calls)
     sum_band     :      0.72s CPU      0.75s WALL (       6 calls)
     v_of_rho     :      0.23s CPU      0.25s WALL (       6 calls)
     newd         :      0.14s CPU      0.16s WALL (       6 calls)
     PAW_pot      :      0.13s CPU      0.13s WALL (       6 calls)
     mix_rho      :      0.02s CPU      0.02s WALL (       6 calls)

     Called by c_bands:
     init_us_2    :      0.10s CPU      0.11s WALL (     540 calls)
     cegterg      :      2.76s CPU      2.88s WALL (     216 calls)

     Called by *egterg:
     cdiaghg      :      0.02s CPU      0.02s WALL (     686 calls)
     h_psi        :      2.60s CPU      2.67s WALL (     758 calls)
     s_psi        :      0.07s CPU      0.08s WALL (     758 calls)
     g_psi        :      0.01s CPU      0.01s WALL (     506 calls)

     Called by h_psi:
     h_psi:calbec :      0.09s CPU      0.11s WALL (     758 calls)
     vloc_psi     :      2.44s CPU      2.47s WALL (     758 calls)
     add_vuspsi   :      0.07s CPU      0.08s WALL (     758 calls)

     General routines
     calbec       :      0.14s CPU      0.17s WALL (    1154 calls)
     fft          :      0.13s CPU      0.13s WALL (      85 calls)
     ffts         :      0.01s CPU      0.01s WALL (      12 calls)
     fftw         :      2.37s CPU      2.38s WALL (    9646 calls)
     interpolate  :      0.01s CPU      0.02s WALL (       6 calls)

     Parallel routines

     PWSCF        :      5.03s CPU      5.30s WALL


   This run was terminated on:   8:13:28  21Jan2025            

=------------------------------------------------------------------------------=
   JOB DONE.
=------------------------------------------------------------------------------=
Note: The following floating-point exceptions are signalling: IEEE_INVALID_FLAG IEEE_DIVIDE_BY_ZERO IEEE_OVERFLOW_FLAG IEEE_UNDERFLOW_FLAG
