[Mac:25640] shmem: mmap: an error occurred while determining whether or not /var/folders/hy/k_vp1md94sz2dr40dtrs6ln80000gn/T//ompi.Mac.501/jf.0/463732736/sm_segment.Mac.501.1ba40000.0 could be created.

     Program PWSCF v.7.3.1 starts on 21Jan2025 at  8:13:18 

     This program is part of the open-source Quantum ESPRESSO suite
     for quantum simulation of materials; please cite
         "P. Giannozzi et al., J. Phys.:Condens. Matter 21 395502 (2009);
         "P. Giannozzi et al., J. Phys.:Condens. Matter 29 465901 (2017);
         "P. Giannozzi et al., J. Chem. Phys. 152 154105 (2020);
          URL http://www.quantum-espresso.org", 
     in publications or presentations arising from this work. More details at
     http://www.quantum-espresso.org/quote

     Parallel version (MPI), running on     1 processors

     MPI processes distributed on     1 nodes
     0 MiB available memory on the printing compute node when the environment starts

     Reading input from Li_config_5.in

     Current dimensions of program PWSCF are:
     Max number of different atomic species (ntypx) = 10
     Max number of k-points (npk) =  40000
     Max angular momentum in pseudopotentials (lmaxx) =  4

     Subspace diagonalization in iterative solution of the eigenvalue problem:
     a serial algorithm will be used


     G-vector sticks info
     --------------------
     sticks:   dense  smooth     PW     G-vecs:    dense   smooth      PW
     Sum        2593    1041    305                99705    25269    4139

     Using Slab Decomposition



     bravais-lattice index     =            1
     lattice parameter (alat)  =      10.4286  a.u.
     unit-cell volume          =    1134.1759 (a.u.)^3
     number of atoms/cell      =            2
     number of atomic types    =            1
     number of electrons       =         6.00
     number of Kohn-Sham states=            7
     kinetic-energy cutoff     =      30.0000  Ry
     charge density cutoff     =     300.0000  Ry
     scf convergence threshold =      1.0E-08
     mixing beta               =       0.7000
     number of iterations used =            8  plain     mixing
     Exchange-correlation= SLA  PW   PBX  PBC
                           (   1   4   3   4   0   0   0)

     celldm(1)=  10.428619  celldm(2)=   0.000000  celldm(3)=   0.000000
     celldm(4)=   0.000000  celldm(5)=   0.000000  celldm(6)=   0.000000

     crystal axes: (cart. coord. in units of alat)
               a(1) = (   1.000000   0.000000   0.000000 )  
               a(2) = (   0.000000   1.000000   0.000000 )  
               a(3) = (   0.000000   0.000000   1.000000 )  

     reciprocal axes: (cart. coord. in units 2 pi/alat)
               b(1) = (  1.000000  0.000000  0.000000 )  
               b(2) = (  0.000000  1.000000  0.000000 )  
               b(3) = (  0.000000  0.000000  1.000000 )  


     PseudoPot. # 1 for Li read from file:
     ../pseudopotentials/Li.pbe-s-kjpaw_psl.1.0.0.UPF
     MD5 check sum: d3662511b3860c829f7212fdb89d6128
     Pseudo is Projector augmented-wave, Zval =  3.0
     Generated using &quot;atomic&quot; code by A. Dal Corso  v.6.3
     Shape of augmentation charge: PSQ
     Using radial grid of 1017 points,  4 beta functions with: 
                l(1) =   0
                l(2) =   0
                l(3) =   1
                l(4) =   1
     Q(r) pseudized with 0 coefficients 


     atomic species   valence    mass     pseudopotential
     Li                3.00     6.94000     Li( 1.00)

     No symmetry found



   Cartesian axes

     site n.     atom                  positions (alat units)
         1        Li     tau(   1) = (   0.9732470   0.0076020   0.9545940  )
         2        Li     tau(   2) = (   0.4767780   0.4885750   0.4696200  )

     number of k points=    36  Gaussian smearing, width (Ry)=  0.0100
                       cart. coord. in units 2pi/alat
        k(    1) = (   0.0000000   0.0000000   0.0000000), wk =   0.0312500
        k(    2) = (   0.0000000   0.0000000   0.2500000), wk =   0.0625000
        k(    3) = (   0.0000000   0.0000000  -0.5000000), wk =   0.0312500
        k(    4) = (   0.0000000   0.2500000   0.2500000), wk =   0.0625000
        k(    5) = (   0.0000000   0.2500000  -0.5000000), wk =   0.0625000
        k(    6) = (   0.0000000  -0.5000000  -0.5000000), wk =   0.0312500
        k(    7) = (   0.2500000   0.2500000   0.2500000), wk =   0.0625000
        k(    8) = (   0.2500000   0.2500000  -0.5000000), wk =   0.0625000
        k(    9) = (   0.2500000  -0.5000000  -0.5000000), wk =   0.0625000
        k(   10) = (  -0.5000000  -0.5000000  -0.5000000), wk =   0.0312500
        k(   11) = (   0.2500000   0.0000000   0.0000000), wk =   0.0625000
        k(   12) = (   0.0000000   0.2500000   0.0000000), wk =   0.0625000
        k(   13) = (  -0.5000000   0.0000000   0.0000000), wk =   0.0312500
        k(   14) = (   0.0000000  -0.5000000   0.0000000), wk =   0.0312500
        k(   15) = (   0.0000000  -0.2500000   0.2500000), wk =   0.0625000
        k(   16) = (   0.2500000   0.0000000  -0.2500000), wk =   0.0625000
        k(   17) = (  -0.2500000   0.0000000  -0.2500000), wk =   0.0625000
        k(   18) = (   0.2500000  -0.2500000   0.0000000), wk =   0.0625000
        k(   19) = (  -0.2500000  -0.2500000   0.0000000), wk =   0.0625000
        k(   20) = (   0.2500000   0.0000000   0.5000000), wk =   0.0625000
        k(   21) = (  -0.5000000  -0.2500000   0.0000000), wk =   0.0625000
        k(   22) = (   0.0000000  -0.5000000   0.2500000), wk =   0.0625000
        k(   23) = (   0.2500000  -0.5000000   0.0000000), wk =   0.0625000
        k(   24) = (  -0.5000000   0.0000000   0.2500000), wk =   0.0625000
        k(   25) = (  -0.5000000   0.0000000   0.5000000), wk =   0.0312500
        k(   26) = (  -0.5000000   0.5000000   0.0000000), wk =   0.0312500
        k(   27) = (  -0.2500000  -0.2500000   0.2500000), wk =   0.0625000
        k(   28) = (  -0.2500000   0.2500000  -0.2500000), wk =   0.0625000
        k(   29) = (   0.2500000  -0.2500000  -0.2500000), wk =   0.0625000
        k(   30) = (  -0.2500000   0.2500000   0.5000000), wk =   0.0625000
        k(   31) = (  -0.5000000  -0.2500000   0.2500000), wk =   0.0625000
        k(   32) = (   0.5000000  -0.2500000  -0.2500000), wk =   0.0625000
        k(   33) = (  -0.2500000  -0.5000000   0.2500000), wk =   0.0625000
        k(   34) = (  -0.2500000   0.5000000  -0.2500000), wk =   0.0625000
        k(   35) = (  -0.5000000   0.2500000   0.5000000), wk =   0.0625000
        k(   36) = (  -0.5000000   0.5000000   0.2500000), wk =   0.0625000

     Dense  grid:    99705 G-vectors     FFT dimensions: (  60,  60,  60)

     Smooth grid:    25269 G-vectors     FFT dimensions: (  40,  40,  40)

     Estimated max dynamical RAM per process >     145.39 MB

     Initial potential from superposition of free atoms

     starting charge       5.9908, renormalised to       6.0000
     Starting wfcs are   10 randomized atomic wfcs
     Checking if some PAW data can be deallocated... 

     total cpu time spent up to now is        0.5 secs

     Self-consistent Calculation

     iteration #  1     ecut=    30.00 Ry     beta= 0.70
     Davidson diagonalization with overlap
     ethr =  1.00E-02,  avg # of iterations =  2.0

     Threshold (ethr) on eigenvalues was too large:
     Diagonalizing with lowered threshold

     Davidson diagonalization with overlap
     ethr =  2.72E-04,  avg # of iterations =  1.5

     total cpu time spent up to now is        1.8 secs

     total energy              =     -29.80413114 Ry
     estimated scf accuracy    <       0.01680303 Ry

     iteration #  2     ecut=    30.00 Ry     beta= 0.70
     Davidson diagonalization with overlap
     ethr =  2.80E-04,  avg # of iterations =  1.0

     total cpu time spent up to now is        2.4 secs

     total energy              =     -29.80489103 Ry
     estimated scf accuracy    <       0.00101932 Ry

     iteration #  3     ecut=    30.00 Ry     beta= 0.70
     Davidson diagonalization with overlap
     ethr =  1.70E-05,  avg # of iterations =  2.3

     total cpu time spent up to now is        3.1 secs

     total energy              =     -29.80500660 Ry
     estimated scf accuracy    <       0.00001291 Ry

     iteration #  4     ecut=    30.00 Ry     beta= 0.70
     Davidson diagonalization with overlap
     ethr =  2.15E-07,  avg # of iterations =  3.2

     total cpu time spent up to now is        3.8 secs

     total energy              =     -29.80501037 Ry
     estimated scf accuracy    <       0.00000012 Ry

     iteration #  5     ecut=    30.00 Ry     beta= 0.70
     Davidson diagonalization with overlap
     ethr =  2.03E-09,  avg # of iterations =  3.0

     total cpu time spent up to now is        4.6 secs

     End of self-consistent calculation

          k = 0.0000 0.0000 0.0000 (  3119 PWs)   bands (ev):

   -51.3113 -51.3088  -3.2149   0.6502   0.6522   0.6553   1.4079

          k = 0.0000 0.0000 0.2500 (  3142 PWs)   bands (ev):

   -51.3247 -51.3149  -2.9372  -0.7477   0.9257   0.9295   1.7091

          k = 0.0000 0.0000-0.5000 (  3178 PWs)   bands (ev):

   -51.3377 -51.3293  -2.1319  -2.0813   1.6667   1.6706   1.7733

          k = 0.0000 0.2500 0.2500 (  3171 PWs)   bands (ev):

   -51.3320 -51.3306  -2.6602  -0.5390  -0.4083   1.1897   1.6082

          k = 0.0000 0.2500-0.5000 (  3134 PWs)   bands (ev):

   -51.3189 -51.3128  -1.8563  -1.8043   0.3090   0.3743   1.8748

          k = 0.0000-0.5000-0.5000 (  3168 PWs)   bands (ev):

   -51.3320 -51.3300  -1.1272  -1.1098  -0.8895  -0.8713   2.1942

          k = 0.2500 0.2500 0.2500 (  3133 PWs)   bands (ev):

   -51.3189 -51.3136  -2.3818  -0.2465  -0.2457  -0.1138   1.6164

          k = 0.2500 0.2500-0.5000 (  3140 PWs)   bands (ev):

   -51.3243 -51.3140  -1.5812  -1.5271   0.5580   0.5621   0.6078

          k = 0.2500-0.5000-0.5000 (  3160 PWs)   bands (ev):

   -51.3292 -51.3265  -0.8360  -0.8132  -0.6412  -0.6179   1.2279

          k =-0.5000-0.5000-0.5000 (  3112 PWs)   bands (ev):

   -51.3093 -51.3085  -0.0182  -0.0053   0.0603   0.1179   0.1214

          k = 0.2500 0.0000 0.0000 (  3142 PWs)   bands (ev):

   -51.3216 -51.3179  -2.9372  -0.7485   0.9275   0.9309   1.7068

          k = 0.0000 0.2500 0.0000 (  3142 PWs)   bands (ev):

   -51.3264 -51.3131  -2.9372  -0.7472   0.9254   0.9277   1.7106

          k =-0.5000 0.0000 0.0000 (  3178 PWs)   bands (ev):

   -51.3345 -51.3325  -2.1128  -2.1009   1.7032   1.7162   1.7281

          k = 0.0000-0.5000 0.0000 (  3178 PWs)   bands (ev):

   -51.3387 -51.3283  -2.1384  -2.0744   1.6539   1.6554   1.7898

          k = 0.0000-0.2500 0.2500 (  3171 PWs)   bands (ev):

   -51.3337 -51.3288  -2.6602  -0.5382  -0.4086   1.1900   1.6009

          k = 0.2500 0.0000-0.2500 (  3171 PWs)   bands (ev):

   -51.3329 -51.3296  -2.6601  -0.5395  -0.4087   1.1933   1.6073

          k =-0.2500 0.0000-0.2500 (  3171 PWs)   bands (ev):

   -51.3330 -51.3295  -2.6601  -0.5393  -0.4087   1.1934   1.6059

          k = 0.2500-0.2500 0.0000 (  3171 PWs)   bands (ev):

   -51.3330 -51.3295  -2.6601  -0.5390  -0.4086   1.1920   1.6049

          k =-0.2500-0.2500 0.0000 (  3171 PWs)   bands (ev):

   -51.3328 -51.3297  -2.6601  -0.5392  -0.4085   1.1920   1.6066

          k = 0.2500 0.0000 0.5000 (  3134 PWs)   bands (ev):

   -51.3188 -51.3130  -1.8562  -1.8041   0.3080   0.3733   1.8766

          k =-0.5000-0.2500 0.0000 (  3134 PWs)   bands (ev):

   -51.3165 -51.3152  -1.8367  -1.8245   0.3338   0.3491   1.9140

          k = 0.0000-0.5000 0.2500 (  3134 PWs)   bands (ev):

   -51.3197 -51.3120  -1.8630  -1.7971   0.3001   0.3828   1.8628

          k = 0.2500-0.5000 0.0000 (  3134 PWs)   bands (ev):

   -51.3196 -51.3121  -1.8629  -1.7970   0.2994   0.3821   1.8638

          k =-0.5000 0.0000 0.2500 (  3134 PWs)   bands (ev):

   -51.3165 -51.3152  -1.8366  -1.8244   0.3333   0.3487   1.9159

          k =-0.5000 0.0000 0.5000 (  3168 PWs)   bands (ev):

   -51.3311 -51.3308  -1.1160  -1.1126  -0.8873  -0.8838   2.2009

          k =-0.5000 0.5000 0.0000 (  3168 PWs)   bands (ev):

   -51.3312 -51.3308  -1.1182  -1.1140  -0.8856  -0.8812   2.1994

          k =-0.2500-0.2500 0.2500 (  3133 PWs)   bands (ev):

   -51.3185 -51.3140  -2.3818  -0.2469  -0.2447  -0.1139   1.6137

          k =-0.2500 0.2500-0.2500 (  3133 PWs)   bands (ev):

   -51.3187 -51.3138  -2.3818  -0.2467  -0.2447  -0.1140   1.6124

          k = 0.2500-0.2500-0.2500 (  3133 PWs)   bands (ev):

   -51.3189 -51.3136  -2.3818  -0.2466  -0.2455  -0.1138   1.6163

          k =-0.2500 0.2500 0.5000 (  3140 PWs)   bands (ev):

   -51.3245 -51.3137  -1.5813  -1.5271   0.5596   0.5673   0.6021

          k =-0.5000-0.2500 0.2500 (  3140 PWs)   bands (ev):

   -51.3205 -51.3177  -1.5610  -1.5483   0.5739   0.5818   0.6185

          k = 0.5000-0.2500-0.2500 (  3140 PWs)   bands (ev):

   -51.3202 -51.3180  -1.5609  -1.5482   0.5632   0.5644   0.6303

          k =-0.2500-0.5000 0.2500 (  3140 PWs)   bands (ev):

   -51.3257 -51.3125  -1.5882  -1.5197   0.5543   0.5549   0.6062

          k =-0.2500 0.5000-0.2500 (  3140 PWs)   bands (ev):

   -51.3260 -51.3122  -1.5882  -1.5197   0.5557   0.5585   0.6026

          k =-0.5000 0.2500 0.5000 (  3160 PWs)   bands (ev):

   -51.3282 -51.3275  -0.8217  -0.8172  -0.6383  -0.6337   1.2472

          k =-0.5000 0.5000 0.2500 (  3160 PWs)   bands (ev):

   -51.3282 -51.3275  -0.8245  -0.8190  -0.6361  -0.6304   1.2466

     the Fermi energy is    -1.6055 ev

!    total energy              =     -29.80501053 Ry
     total all-electron energy =       -29.805033 Ry
     estimated scf accuracy    <          1.8E-09 Ry
     smearing contrib. (-TS)   =      -0.00194881 Ry
     internal energy E=F+TS    =     -29.80306172 Ry

     The total energy is F=E-TS. E is the sum of the following terms:
     one-electron contribution =     -26.61503738 Ry
     hartree contribution      =       9.68371025 Ry
     xc contribution           =      -6.73642057 Ry
     ewald contribution        =      -6.27921710 Ry
     one-center paw contrib.   =       0.14390308 Ry

     convergence has been achieved in   5 iterations

     Forces acting on atoms (cartesian axes, Ry/au):

     atom    1 type  1   force =    -0.00011324    0.00059007   -0.00046103
     atom    2 type  1   force =     0.00011324   -0.00059007    0.00046103

     Total force =     0.001071     Total SCF correction =     0.000004


     Computing stress (Cartesian axis) and pressure

          total   stress  (Ry/bohr**3)                   (kbar)     P=      -68.19
  -0.00046385   0.00000000  -0.00000000          -68.24        0.00       -0.00
   0.00000000  -0.00046331   0.00000002            0.00      -68.16        0.00
  -0.00000000   0.00000002  -0.00046351           -0.00        0.00      -68.19


     Writing all to output data dir ./tmp/Li_config_5.save/ :
     XML data file, charge density, pseudopotentials, collected wavefunctions

     init_run     :      0.47s CPU      0.49s WALL (       1 calls)
     electrons    :      3.86s CPU      4.06s WALL (       1 calls)
     forces       :      0.08s CPU      0.09s WALL (       1 calls)
     stress       :      0.40s CPU      0.42s WALL (       1 calls)

     Called by init_run:
     wfcinit      :      0.28s CPU      0.29s WALL (       1 calls)
     potinit      :      0.07s CPU      0.08s WALL (       1 calls)
     hinit0       :      0.07s CPU      0.07s WALL (       1 calls)

     Called by electrons:
     c_bands      :      2.72s CPU      2.84s WALL (       6 calls)
     sum_band     :      0.70s CPU      0.74s WALL (       6 calls)
     v_of_rho     :      0.23s CPU      0.24s WALL (       6 calls)
     newd         :      0.14s CPU      0.16s WALL (       6 calls)
     PAW_pot      :      0.13s CPU      0.13s WALL (       6 calls)
     mix_rho      :      0.02s CPU      0.02s WALL (       6 calls)

     Called by c_bands:
     init_us_2    :      0.10s CPU      0.12s WALL (     540 calls)
     cegterg      :      2.62s CPU      2.74s WALL (     216 calls)

     Called by *egterg:
     cdiaghg      :      0.02s CPU      0.02s WALL (     645 calls)
     h_psi        :      2.49s CPU      2.55s WALL (     717 calls)
     s_psi        :      0.06s CPU      0.07s WALL (     717 calls)
     g_psi        :      0.01s CPU      0.01s WALL (     465 calls)

     Called by h_psi:
     h_psi:calbec :      0.08s CPU      0.10s WALL (     717 calls)
     vloc_psi     :      2.34s CPU      2.37s WALL (     717 calls)
     add_vuspsi   :      0.06s CPU      0.07s WALL (     717 calls)

     General routines
     calbec       :      0.13s CPU      0.17s WALL (    1113 calls)
     fft          :      0.13s CPU      0.13s WALL (      85 calls)
     ffts         :      0.01s CPU      0.01s WALL (      12 calls)
     fftw         :      2.26s CPU      2.27s WALL (    9692 calls)
     interpolate  :      0.01s CPU      0.02s WALL (       6 calls)

     Parallel routines

     PWSCF        :      4.84s CPU      5.10s WALL


   This run was terminated on:   8:13:23  21Jan2025            

=------------------------------------------------------------------------------=
   JOB DONE.
=------------------------------------------------------------------------------=
Note: The following floating-point exceptions are signalling: IEEE_INVALID_FLAG IEEE_DIVIDE_BY_ZERO IEEE_OVERFLOW_FLAG IEEE_UNDERFLOW_FLAG
