[Mac:25621] shmem: mmap: an error occurred while determining whether or not /var/folders/hy/k_vp1md94sz2dr40dtrs6ln80000gn/T//ompi.Mac.501/jf.0/4233166848/sm_segment.Mac.501.fc510000.0 could be created.

     Program PWSCF v.7.3.1 starts on 21Jan2025 at  8:13: 2 

     This program is part of the open-source Quantum ESPRESSO suite
     for quantum simulation of materials; please cite
         "P. Giannozzi et al., J. Phys.:Condens. Matter 21 395502 (2009);
         "P. Giannozzi et al., J. Phys.:Condens. Matter 29 465901 (2017);
         "P. Giannozzi et al., J. Chem. Phys. 152 154105 (2020);
          URL http://www.quantum-espresso.org", 
     in publications or presentations arising from this work. More details at
     http://www.quantum-espresso.org/quote

     Parallel version (MPI), running on     1 processors

     MPI processes distributed on     1 nodes
     0 MiB available memory on the printing compute node when the environment starts

     Reading input from Li_config_2.in

     Current dimensions of program PWSCF are:
     Max number of different atomic species (ntypx) = 10
     Max number of k-points (npk) =  40000
     Max angular momentum in pseudopotentials (lmaxx) =  4

     Subspace diagonalization in iterative solution of the eigenvalue problem:
     a serial algorithm will be used


     G-vector sticks info
     --------------------
     sticks:   dense  smooth     PW     G-vecs:    dense   smooth      PW
     Sum        2757    1101    333               109127    27633    4553

     Using Slab Decomposition



     bravais-lattice index     =            1
     lattice parameter (alat)  =      10.7670  a.u.
     unit-cell volume          =    1248.2135 (a.u.)^3
     number of atoms/cell      =            2
     number of atomic types    =            1
     number of electrons       =         6.00
     number of Kohn-Sham states=            7
     kinetic-energy cutoff     =      30.0000  Ry
     charge density cutoff     =     300.0000  Ry
     scf convergence threshold =      1.0E-08
     mixing beta               =       0.7000
     number of iterations used =            8  plain     mixing
     Exchange-correlation= SLA  PW   PBX  PBC
                           (   1   4   3   4   0   0   0)

     celldm(1)=  10.767039  celldm(2)=   0.000000  celldm(3)=   0.000000
     celldm(4)=   0.000000  celldm(5)=   0.000000  celldm(6)=   0.000000

     crystal axes: (cart. coord. in units of alat)
               a(1) = (   1.000000   0.000000   0.000000 )  
               a(2) = (   0.000000   1.000000   0.000000 )  
               a(3) = (   0.000000   0.000000   1.000000 )  

     reciprocal axes: (cart. coord. in units 2 pi/alat)
               b(1) = (  1.000000  0.000000  0.000000 )  
               b(2) = (  0.000000  1.000000  0.000000 )  
               b(3) = (  0.000000  0.000000  1.000000 )  


     PseudoPot. # 1 for Li read from file:
     ../pseudopotentials/Li.pbe-s-kjpaw_psl.1.0.0.UPF
     MD5 check sum: d3662511b3860c829f7212fdb89d6128
     Pseudo is Projector augmented-wave, Zval =  3.0
     Generated using &quot;atomic&quot; code by A. Dal Corso  v.6.3
     Shape of augmentation charge: PSQ
     Using radial grid of 1017 points,  4 beta functions with: 
                l(1) =   0
                l(2) =   0
                l(3) =   1
                l(4) =   1
     Q(r) pseudized with 0 coefficients 


     atomic species   valence    mass     pseudopotential
     Li                3.00     6.94000     Li( 1.00)

     No symmetry found



   Cartesian axes

     site n.     atom                  positions (alat units)
         1        Li     tau(   1) = (   0.0242510   0.0005770   0.9734460  )
         2        Li     tau(   2) = (   0.4908520   0.4942100   0.4802500  )

     number of k points=    36  Gaussian smearing, width (Ry)=  0.0100
                       cart. coord. in units 2pi/alat
        k(    1) = (   0.0000000   0.0000000   0.0000000), wk =   0.0312500
        k(    2) = (   0.0000000   0.0000000   0.2500000), wk =   0.0625000
        k(    3) = (   0.0000000   0.0000000  -0.5000000), wk =   0.0312500
        k(    4) = (   0.0000000   0.2500000   0.2500000), wk =   0.0625000
        k(    5) = (   0.0000000   0.2500000  -0.5000000), wk =   0.0625000
        k(    6) = (   0.0000000  -0.5000000  -0.5000000), wk =   0.0312500
        k(    7) = (   0.2500000   0.2500000   0.2500000), wk =   0.0625000
        k(    8) = (   0.2500000   0.2500000  -0.5000000), wk =   0.0625000
        k(    9) = (   0.2500000  -0.5000000  -0.5000000), wk =   0.0625000
        k(   10) = (  -0.5000000  -0.5000000  -0.5000000), wk =   0.0312500
        k(   11) = (   0.2500000   0.0000000   0.0000000), wk =   0.0625000
        k(   12) = (   0.0000000   0.2500000   0.0000000), wk =   0.0625000
        k(   13) = (  -0.5000000   0.0000000   0.0000000), wk =   0.0312500
        k(   14) = (   0.0000000  -0.5000000   0.0000000), wk =   0.0312500
        k(   15) = (   0.0000000  -0.2500000   0.2500000), wk =   0.0625000
        k(   16) = (   0.2500000   0.0000000  -0.2500000), wk =   0.0625000
        k(   17) = (  -0.2500000   0.0000000  -0.2500000), wk =   0.0625000
        k(   18) = (   0.2500000  -0.2500000   0.0000000), wk =   0.0625000
        k(   19) = (  -0.2500000  -0.2500000   0.0000000), wk =   0.0625000
        k(   20) = (   0.2500000   0.0000000   0.5000000), wk =   0.0625000
        k(   21) = (  -0.5000000  -0.2500000   0.0000000), wk =   0.0625000
        k(   22) = (   0.0000000  -0.5000000   0.2500000), wk =   0.0625000
        k(   23) = (   0.2500000  -0.5000000   0.0000000), wk =   0.0625000
        k(   24) = (  -0.5000000   0.0000000   0.2500000), wk =   0.0625000
        k(   25) = (  -0.5000000   0.0000000   0.5000000), wk =   0.0312500
        k(   26) = (  -0.5000000   0.5000000   0.0000000), wk =   0.0312500
        k(   27) = (  -0.2500000  -0.2500000   0.2500000), wk =   0.0625000
        k(   28) = (  -0.2500000   0.2500000  -0.2500000), wk =   0.0625000
        k(   29) = (   0.2500000  -0.2500000  -0.2500000), wk =   0.0625000
        k(   30) = (  -0.2500000   0.2500000   0.5000000), wk =   0.0625000
        k(   31) = (  -0.5000000  -0.2500000   0.2500000), wk =   0.0625000
        k(   32) = (   0.5000000  -0.2500000  -0.2500000), wk =   0.0625000
        k(   33) = (  -0.2500000  -0.5000000   0.2500000), wk =   0.0625000
        k(   34) = (  -0.2500000   0.5000000  -0.2500000), wk =   0.0625000
        k(   35) = (  -0.5000000   0.2500000   0.5000000), wk =   0.0625000
        k(   36) = (  -0.5000000   0.5000000   0.2500000), wk =   0.0625000

     Dense  grid:   109127 G-vectors     FFT dimensions: (  60,  60,  60)

     Smooth grid:    27633 G-vectors     FFT dimensions: (  40,  40,  40)

     Estimated max dynamical RAM per process >     157.78 MB

     Initial potential from superposition of free atoms

     starting charge       5.9908, renormalised to       6.0000
     Starting wfcs are   10 randomized atomic wfcs
     Checking if some PAW data can be deallocated... 

     total cpu time spent up to now is        0.6 secs

     Self-consistent Calculation

     iteration #  1     ecut=    30.00 Ry     beta= 0.70
     Davidson diagonalization with overlap
     ethr =  1.00E-02,  avg # of iterations =  2.0

     Threshold (ethr) on eigenvalues was too large:
     Diagonalizing with lowered threshold

     Davidson diagonalization with overlap
     ethr =  2.82E-04,  avg # of iterations =  1.3

     total cpu time spent up to now is        2.0 secs

     total energy              =     -29.79102157 Ry
     estimated scf accuracy    <       0.01737468 Ry

     iteration #  2     ecut=    30.00 Ry     beta= 0.70
     Davidson diagonalization with overlap
     ethr =  2.90E-04,  avg # of iterations =  1.0

     total cpu time spent up to now is        2.7 secs

     total energy              =     -29.79186073 Ry
     estimated scf accuracy    <       0.00110133 Ry

     iteration #  3     ecut=    30.00 Ry     beta= 0.70
     Davidson diagonalization with overlap
     ethr =  1.84E-05,  avg # of iterations =  2.5

     total cpu time spent up to now is        3.6 secs

     total energy              =     -29.79199334 Ry
     estimated scf accuracy    <       0.00001592 Ry

     iteration #  4     ecut=    30.00 Ry     beta= 0.70
     Davidson diagonalization with overlap
     ethr =  2.65E-07,  avg # of iterations =  3.9

     total cpu time spent up to now is        4.4 secs

     total energy              =     -29.79199836 Ry
     estimated scf accuracy    <       0.00000019 Ry

     iteration #  5     ecut=    30.00 Ry     beta= 0.70
     Davidson diagonalization with overlap
     ethr =  3.10E-09,  avg # of iterations =  3.0

     total cpu time spent up to now is        5.2 secs

     End of self-consistent calculation

          k = 0.0000 0.0000 0.0000 (  3431 PWs)   bands (ev):

   -51.5308 -51.5126  -3.1973   0.4497   0.4503   0.4625   0.9682

          k = 0.0000 0.0000 0.2500 (  3495 PWs)   bands (ev):

   -51.5505 -51.5427  -2.9361  -0.8792   0.7063   0.7172   1.3017

          k = 0.0000 0.0000-0.5000 (  3450 PWs)   bands (ev):

   -51.5314 -51.5305  -2.1649  -2.1415   1.4115   1.4318   1.4547

          k = 0.0000 0.2500 0.2500 (  3455 PWs)   bands (ev):

   -51.5361 -51.5277  -2.6734  -0.6421  -0.6033   0.9598   1.3162

          k = 0.0000 0.2500-0.5000 (  3446 PWs)   bands (ev):

   -51.5305 -51.5282  -1.9053  -1.8814   0.1188   0.1477   1.6080

          k = 0.0000-0.5000-0.5000 (  3468 PWs)   bands (ev):

   -51.5378 -51.5374  -1.1793  -1.1739  -1.0622  -1.0568   1.8757

          k = 0.2500 0.2500 0.2500 (  3467 PWs)   bands (ev):

   -51.5402 -51.5334  -2.4130  -0.3700  -0.3694  -0.3641   1.2821

          k = 0.2500 0.2500-0.5000 (  3464 PWs)   bands (ev):

   -51.5382 -51.5340  -1.6469  -1.6223   0.3088   0.3246   0.4271

          k = 0.2500-0.5000-0.5000 (  3476 PWs)   bands (ev):

   -51.5411 -51.5403  -0.9066  -0.8983  -0.8276  -0.8193   0.9719

          k =-0.5000-0.5000-0.5000 (  3448 PWs)   bands (ev):

   -51.5311 -51.5304  -0.2044  -0.1922  -0.1750  -0.1678  -0.0687

          k = 0.2500 0.0000 0.0000 (  3495 PWs)   bands (ev):

   -51.5519 -51.5413  -2.9368  -0.8748   0.7038   0.7043   1.3124

          k = 0.0000 0.2500 0.0000 (  3495 PWs)   bands (ev):

   -51.5505 -51.5427  -2.9361  -0.8792   0.7063   0.7173   1.3016

          k =-0.5000 0.0000 0.0000 (  3450 PWs)   bands (ev):

   -51.5361 -51.5258  -2.2089  -2.0943   1.3335   1.3347   1.5613

          k = 0.0000-0.5000 0.0000 (  3450 PWs)   bands (ev):

   -51.5314 -51.5305  -2.1642  -2.1423   1.4125   1.4243   1.4538

          k = 0.0000-0.2500 0.2500 (  3455 PWs)   bands (ev):

   -51.5362 -51.5276  -2.6734  -0.6419  -0.6033   0.9599   1.3150

          k = 0.2500 0.0000-0.2500 (  3455 PWs)   bands (ev):

   -51.5338 -51.5300  -2.6741  -0.6395  -0.6021   0.9497   1.3067

          k =-0.2500 0.0000-0.2500 (  3455 PWs)   bands (ev):

   -51.5329 -51.5309  -2.6741  -0.6402  -0.6019   0.9495   1.3124

          k = 0.2500-0.2500 0.0000 (  3455 PWs)   bands (ev):

   -51.5329 -51.5308  -2.6741  -0.6402  -0.6019   0.9496   1.3122

          k =-0.2500-0.2500 0.0000 (  3455 PWs)   bands (ev):

   -51.5338 -51.5300  -2.6741  -0.6395  -0.6021   0.9499   1.3069

          k = 0.2500 0.0000 0.5000 (  3446 PWs)   bands (ev):

   -51.5321 -51.5267  -1.9059  -1.8820   0.1223   0.1511   1.6043

          k =-0.5000-0.2500 0.0000 (  3446 PWs)   bands (ev):

   -51.5365 -51.5223  -1.9505  -1.8329   0.0635   0.2055   1.5294

          k = 0.0000-0.5000 0.2500 (  3446 PWs)   bands (ev):

   -51.5305 -51.5282  -1.9046  -1.8822   0.1197   0.1468   1.6071

          k = 0.2500-0.5000 0.0000 (  3446 PWs)   bands (ev):

   -51.5319 -51.5268  -1.9052  -1.8827   0.1232   0.1502   1.6070

          k =-0.5000 0.0000 0.2500 (  3446 PWs)   bands (ev):

   -51.5365 -51.5222  -1.9505  -1.8329   0.0635   0.2056   1.5299

          k =-0.5000 0.0000 0.5000 (  3468 PWs)   bands (ev):

   -51.5392 -51.5360  -1.2109  -1.1913  -1.0417  -1.0219   1.8681

          k =-0.5000 0.5000 0.0000 (  3468 PWs)   bands (ev):

   -51.5391 -51.5361  -1.2103  -1.1919  -1.0412  -1.0226   1.8674

          k =-0.2500-0.2500 0.2500 (  3467 PWs)   bands (ev):

   -51.5412 -51.5324  -2.4130  -0.3697  -0.3695  -0.3637   1.2793

          k =-0.2500 0.2500-0.2500 (  3467 PWs)   bands (ev):

   -51.5395 -51.5341  -2.4130  -0.3698  -0.3694  -0.3646   1.2837

          k = 0.2500-0.2500-0.2500 (  3467 PWs)   bands (ev):

   -51.5403 -51.5333  -2.4130  -0.3700  -0.3694  -0.3641   1.2819

          k =-0.2500 0.2500 0.5000 (  3464 PWs)   bands (ev):

   -51.5378 -51.5344  -1.6469  -1.6223   0.3064   0.3204   0.4314

          k =-0.5000-0.2500 0.2500 (  3464 PWs)   bands (ev):

   -51.5436 -51.5286  -1.6927  -1.5719   0.2771   0.3385   0.3623

          k = 0.5000-0.2500-0.2500 (  3464 PWs)   bands (ev):

   -51.5430 -51.5292  -1.6927  -1.5719   0.2768   0.3347   0.3661

          k =-0.2500-0.5000 0.2500 (  3464 PWs)   bands (ev):

   -51.5380 -51.5341  -1.6462  -1.6231   0.3094   0.3241   0.4283

          k =-0.2500 0.5000-0.2500 (  3464 PWs)   bands (ev):

   -51.5377 -51.5345  -1.6461  -1.6231   0.3070   0.3200   0.4325

          k =-0.5000 0.2500 0.5000 (  3476 PWs)   bands (ev):

   -51.5417 -51.5397  -0.9460  -0.9224  -0.7989  -0.7753   0.9567

          k =-0.5000 0.5000 0.2500 (  3476 PWs)   bands (ev):

   -51.5417 -51.5397  -0.9452  -0.9232  -0.7982  -0.7760   0.9497

     the Fermi energy is    -1.6842 ev

!    total energy              =     -29.79199858 Ry
     total all-electron energy =       -29.792021 Ry
     estimated scf accuracy    <          2.8E-09 Ry
     smearing contrib. (-TS)   =      -0.00200754 Ry
     internal energy E=F+TS    =     -29.78999104 Ry

     The total energy is F=E-TS. E is the sum of the following terms:
     one-electron contribution =     -26.92789583 Ry
     hartree contribution      =       9.79748568 Ry
     xc contribution           =      -6.72371271 Ry
     ewald contribution        =      -6.07975711 Ry
     one-center paw contrib.   =       0.14388892 Ry

     convergence has been achieved in   5 iterations

     Forces acting on atoms (cartesian axes, Ry/au):

     atom    1 type  1   force =     0.00111781    0.00021558   -0.00024161
     atom    2 type  1   force =    -0.00111781   -0.00021558    0.00024161

     Total force =     0.001646     Total SCF correction =     0.000009


     Computing stress (Cartesian axis) and pressure

          total   stress  (Ry/bohr**3)                   (kbar)     P=      -61.87
  -0.00041967  -0.00000006   0.00000007          -61.74       -0.01        0.01
  -0.00000006  -0.00042102   0.00000001           -0.01      -61.93        0.00
   0.00000007   0.00000001  -0.00042102            0.01        0.00      -61.93


     Writing all to output data dir ./tmp/Li_config_2.save/ :
     XML data file, charge density, pseudopotentials, collected wavefunctions

     init_run     :      0.50s CPU      0.53s WALL (       1 calls)
     electrons    :      4.20s CPU      4.63s WALL (       1 calls)
     forces       :      0.08s CPU      0.10s WALL (       1 calls)
     stress       :      0.44s CPU      0.47s WALL (       1 calls)

     Called by init_run:
     wfcinit      :      0.30s CPU      0.32s WALL (       1 calls)
     potinit      :      0.07s CPU      0.08s WALL (       1 calls)
     hinit0       :      0.07s CPU      0.08s WALL (       1 calls)

     Called by electrons:
     c_bands      :      2.98s CPU      3.29s WALL (       6 calls)
     sum_band     :      0.75s CPU      0.81s WALL (       6 calls)
     v_of_rho     :      0.23s CPU      0.26s WALL (       6 calls)
     newd         :      0.16s CPU      0.19s WALL (       6 calls)
     PAW_pot      :      0.13s CPU      0.14s WALL (       6 calls)
     mix_rho      :      0.02s CPU      0.02s WALL (       6 calls)

     Called by c_bands:
     init_us_2    :      0.11s CPU      0.13s WALL (     540 calls)
     cegterg      :      2.87s CPU      3.17s WALL (     216 calls)

     Called by *egterg:
     cdiaghg      :      0.02s CPU      0.02s WALL (     672 calls)
     h_psi        :      2.68s CPU      2.82s WALL (     744 calls)
     s_psi        :      0.08s CPU      0.11s WALL (     744 calls)
     g_psi        :      0.01s CPU      0.01s WALL (     492 calls)

     Called by h_psi:
     h_psi:calbec :      0.10s CPU      0.14s WALL (     744 calls)
     vloc_psi     :      2.49s CPU      2.55s WALL (     744 calls)
     add_vuspsi   :      0.08s CPU      0.12s WALL (     744 calls)

     General routines
     calbec       :      0.16s CPU      0.23s WALL (    1140 calls)
     fft          :      0.13s CPU      0.13s WALL (      85 calls)
     ffts         :      0.01s CPU      0.01s WALL (      12 calls)
     fftw         :      2.41s CPU      2.44s WALL (    9600 calls)
     interpolate  :      0.02s CPU      0.02s WALL (       6 calls)

     Parallel routines

     PWSCF        :      5.25s CPU      5.78s WALL


   This run was terminated on:   8:13: 8  21Jan2025            

=------------------------------------------------------------------------------=
   JOB DONE.
=------------------------------------------------------------------------------=
Note: The following floating-point exceptions are signalling: IEEE_INVALID_FLAG IEEE_DIVIDE_BY_ZERO IEEE_OVERFLOW_FLAG IEEE_UNDERFLOW_FLAG
