[Mac:25654] shmem: mmap: an error occurred while determining whether or not /var/folders/hy/k_vp1md94sz2dr40dtrs6ln80000gn/T//ompi.Mac.501/jf.0/3294953472/sm_segment.Mac.501.c4650000.0 could be created.

     Program PWSCF v.7.3.1 starts on 21Jan2025 at  8:13:28 

     This program is part of the open-source Quantum ESPRESSO suite
     for quantum simulation of materials; please cite
         "P. Giannozzi et al., J. Phys.:Condens. Matter 21 395502 (2009);
         "P. Giannozzi et al., J. Phys.:Condens. Matter 29 465901 (2017);
         "P. Giannozzi et al., J. Chem. Phys. 152 154105 (2020);
          URL http://www.quantum-espresso.org", 
     in publications or presentations arising from this work. More details at
     http://www.quantum-espresso.org/quote

     Parallel version (MPI), running on     1 processors

     MPI processes distributed on     1 nodes
     0 MiB available memory on the printing compute node when the environment starts

     Reading input from Li_config_7.in

     Current dimensions of program PWSCF are:
     Max number of different atomic species (ntypx) = 10
     Max number of k-points (npk) =  40000
     Max angular momentum in pseudopotentials (lmaxx) =  4

     Subspace diagonalization in iterative solution of the eigenvalue problem:
     a serial algorithm will be used


     G-vector sticks info
     --------------------
     sticks:   dense  smooth     PW     G-vecs:    dense   smooth      PW
     Sum        2733    1093    325               107591    27201    4385

     Using Slab Decomposition



     bravais-lattice index     =            1
     lattice parameter (alat)  =      10.6960  a.u.
     unit-cell volume          =    1223.6806 (a.u.)^3
     number of atoms/cell      =            2
     number of atomic types    =            1
     number of electrons       =         6.00
     number of Kohn-Sham states=            7
     kinetic-energy cutoff     =      30.0000  Ry
     charge density cutoff     =     300.0000  Ry
     scf convergence threshold =      1.0E-08
     mixing beta               =       0.7000
     number of iterations used =            8  plain     mixing
     Exchange-correlation= SLA  PW   PBX  PBC
                           (   1   4   3   4   0   0   0)

     celldm(1)=  10.696032  celldm(2)=   0.000000  celldm(3)=   0.000000
     celldm(4)=   0.000000  celldm(5)=   0.000000  celldm(6)=   0.000000

     crystal axes: (cart. coord. in units of alat)
               a(1) = (   1.000000   0.000000   0.000000 )  
               a(2) = (   0.000000   1.000000   0.000000 )  
               a(3) = (   0.000000   0.000000   1.000000 )  

     reciprocal axes: (cart. coord. in units 2 pi/alat)
               b(1) = (  1.000000  0.000000  0.000000 )  
               b(2) = (  0.000000  1.000000  0.000000 )  
               b(3) = (  0.000000  0.000000  1.000000 )  


     PseudoPot. # 1 for Li read from file:
     ../pseudopotentials/Li.pbe-s-kjpaw_psl.1.0.0.UPF
     MD5 check sum: d3662511b3860c829f7212fdb89d6128
     Pseudo is Projector augmented-wave, Zval =  3.0
     Generated using &quot;atomic&quot; code by A. Dal Corso  v.6.3
     Shape of augmentation charge: PSQ
     Using radial grid of 1017 points,  4 beta functions with: 
                l(1) =   0
                l(2) =   0
                l(3) =   1
                l(4) =   1
     Q(r) pseudized with 0 coefficients 


     atomic species   valence    mass     pseudopotential
     Li                3.00     6.94000     Li( 1.00)

     No symmetry found



   Cartesian axes

     site n.     atom                  positions (alat units)
         1        Li     tau(   1) = (   0.9873620   0.0470500   0.9645670  )
         2        Li     tau(   2) = (   0.5321350   0.5128410   0.5228970  )

     number of k points=    36  Gaussian smearing, width (Ry)=  0.0100
                       cart. coord. in units 2pi/alat
        k(    1) = (   0.0000000   0.0000000   0.0000000), wk =   0.0312500
        k(    2) = (   0.0000000   0.0000000   0.2500000), wk =   0.0625000
        k(    3) = (   0.0000000   0.0000000  -0.5000000), wk =   0.0312500
        k(    4) = (   0.0000000   0.2500000   0.2500000), wk =   0.0625000
        k(    5) = (   0.0000000   0.2500000  -0.5000000), wk =   0.0625000
        k(    6) = (   0.0000000  -0.5000000  -0.5000000), wk =   0.0312500
        k(    7) = (   0.2500000   0.2500000   0.2500000), wk =   0.0625000
        k(    8) = (   0.2500000   0.2500000  -0.5000000), wk =   0.0625000
        k(    9) = (   0.2500000  -0.5000000  -0.5000000), wk =   0.0625000
        k(   10) = (  -0.5000000  -0.5000000  -0.5000000), wk =   0.0312500
        k(   11) = (   0.2500000   0.0000000   0.0000000), wk =   0.0625000
        k(   12) = (   0.0000000   0.2500000   0.0000000), wk =   0.0625000
        k(   13) = (  -0.5000000   0.0000000   0.0000000), wk =   0.0312500
        k(   14) = (   0.0000000  -0.5000000   0.0000000), wk =   0.0312500
        k(   15) = (   0.0000000  -0.2500000   0.2500000), wk =   0.0625000
        k(   16) = (   0.2500000   0.0000000  -0.2500000), wk =   0.0625000
        k(   17) = (  -0.2500000   0.0000000  -0.2500000), wk =   0.0625000
        k(   18) = (   0.2500000  -0.2500000   0.0000000), wk =   0.0625000
        k(   19) = (  -0.2500000  -0.2500000   0.0000000), wk =   0.0625000
        k(   20) = (   0.2500000   0.0000000   0.5000000), wk =   0.0625000
        k(   21) = (  -0.5000000  -0.2500000   0.0000000), wk =   0.0625000
        k(   22) = (   0.0000000  -0.5000000   0.2500000), wk =   0.0625000
        k(   23) = (   0.2500000  -0.5000000   0.0000000), wk =   0.0625000
        k(   24) = (  -0.5000000   0.0000000   0.2500000), wk =   0.0625000
        k(   25) = (  -0.5000000   0.0000000   0.5000000), wk =   0.0312500
        k(   26) = (  -0.5000000   0.5000000   0.0000000), wk =   0.0312500
        k(   27) = (  -0.2500000  -0.2500000   0.2500000), wk =   0.0625000
        k(   28) = (  -0.2500000   0.2500000  -0.2500000), wk =   0.0625000
        k(   29) = (   0.2500000  -0.2500000  -0.2500000), wk =   0.0625000
        k(   30) = (  -0.2500000   0.2500000   0.5000000), wk =   0.0625000
        k(   31) = (  -0.5000000  -0.2500000   0.2500000), wk =   0.0625000
        k(   32) = (   0.5000000  -0.2500000  -0.2500000), wk =   0.0625000
        k(   33) = (  -0.2500000  -0.5000000   0.2500000), wk =   0.0625000
        k(   34) = (  -0.2500000   0.5000000  -0.2500000), wk =   0.0625000
        k(   35) = (  -0.5000000   0.2500000   0.5000000), wk =   0.0625000
        k(   36) = (  -0.5000000   0.5000000   0.2500000), wk =   0.0625000

     Dense  grid:   107591 G-vectors     FFT dimensions: (  60,  60,  60)

     Smooth grid:    27201 G-vectors     FFT dimensions: (  40,  40,  40)

     Estimated max dynamical RAM per process >     155.68 MB

     Initial potential from superposition of free atoms

     starting charge       5.9908, renormalised to       6.0000
     Starting wfcs are   10 randomized atomic wfcs
     Checking if some PAW data can be deallocated... 

     total cpu time spent up to now is        0.5 secs

     Self-consistent Calculation

     iteration #  1     ecut=    30.00 Ry     beta= 0.70
     Davidson diagonalization with overlap
     ethr =  1.00E-02,  avg # of iterations =  2.0

     Threshold (ethr) on eigenvalues was too large:
     Diagonalizing with lowered threshold

     Davidson diagonalization with overlap
     ethr =  2.84E-04,  avg # of iterations =  1.3

     total cpu time spent up to now is        1.8 secs

     total energy              =     -29.79503075 Ry
     estimated scf accuracy    <       0.01764894 Ry

     iteration #  2     ecut=    30.00 Ry     beta= 0.70
     Davidson diagonalization with overlap
     ethr =  2.94E-04,  avg # of iterations =  1.0

     total cpu time spent up to now is        2.4 secs

     total energy              =     -29.79587813 Ry
     estimated scf accuracy    <       0.00107198 Ry

     iteration #  3     ecut=    30.00 Ry     beta= 0.70
     Davidson diagonalization with overlap
     ethr =  1.79E-05,  avg # of iterations =  2.7

     total cpu time spent up to now is        3.2 secs

     total energy              =     -29.79600984 Ry
     estimated scf accuracy    <       0.00001636 Ry

     iteration #  4     ecut=    30.00 Ry     beta= 0.70
     Davidson diagonalization with overlap
     ethr =  2.73E-07,  avg # of iterations =  3.8

     total cpu time spent up to now is        4.0 secs

     total energy              =     -29.79601498 Ry
     estimated scf accuracy    <       0.00000032 Ry

     iteration #  5     ecut=    30.00 Ry     beta= 0.70
     Davidson diagonalization with overlap
     ethr =  5.35E-09,  avg # of iterations =  3.0

     total cpu time spent up to now is        4.7 secs

     End of self-consistent calculation

          k = 0.0000 0.0000 0.0000 (  3407 PWs)   bands (ev):

   -51.4738 -51.4635  -3.2013   0.4808   0.5031   0.5244   1.0427

          k = 0.0000 0.0000 0.2500 (  3415 PWs)   bands (ev):

   -51.4723 -51.4710  -2.9382  -0.8433   0.7384   0.7571   1.3749

          k = 0.0000 0.0000-0.5000 (  3394 PWs)   bands (ev):

   -51.4672 -51.4629  -2.2409  -2.0405   1.2853   1.3218   1.6427

          k = 0.0000 0.2500 0.2500 (  3393 PWs)   bands (ev):

   -51.4652 -51.4621  -2.6735  -0.6239  -0.5580   0.9954   1.3875

          k = 0.0000 0.2500-0.5000 (  3398 PWs)   bands (ev):

   -51.4677 -51.4662  -1.9817  -1.7756   0.0536   0.3027   1.5206

          k = 0.0000-0.5000-0.5000 (  3388 PWs)   bands (ev):

   -51.4700 -51.4559  -1.2799  -1.1728  -1.0092  -0.8985   1.8927

          k = 0.2500 0.2500 0.2500 (  3389 PWs)   bands (ev):

   -51.4670 -51.4586  -2.4102  -0.3569  -0.3386  -0.3108   1.3533

          k = 0.2500 0.2500-0.5000 (  3400 PWs)   bands (ev):

   -51.4708 -51.4646  -1.7229  -1.5108   0.2761   0.2957   0.4742

          k = 0.2500-0.5000-0.5000 (  3396 PWs)   bands (ev):

   -51.4687 -51.4637  -1.0202  -0.9001  -0.7675  -0.6445   0.9240

          k =-0.5000-0.5000-0.5000 (  3448 PWs)   bands (ev):

   -51.4914 -51.4806  -0.3549  -0.2273  -0.1533  -0.1162  -0.0908

          k = 0.2500 0.0000 0.0000 (  3415 PWs)   bands (ev):

   -51.4742 -51.4691  -2.9376  -0.8488   0.7422   0.7734   1.3617

          k = 0.0000 0.2500 0.0000 (  3415 PWs)   bands (ev):

   -51.4732 -51.4701  -2.9374  -0.8520   0.7487   0.7793   1.3544

          k =-0.5000 0.0000 0.0000 (  3394 PWs)   bands (ev):

   -51.4667 -51.4635  -2.2196  -2.0659   1.3180   1.3669   1.5822

          k = 0.0000-0.5000 0.0000 (  3394 PWs)   bands (ev):

   -51.4655 -51.4646  -2.2025  -2.0854   1.3403   1.4056   1.5393

          k = 0.0000-0.2500 0.2500 (  3393 PWs)   bands (ev):

   -51.4648 -51.4625  -2.6740  -0.6179  -0.5592   0.9963   1.3425

          k = 0.2500 0.0000-0.2500 (  3393 PWs)   bands (ev):

   -51.4645 -51.4628  -2.6739  -0.6227  -0.5572   0.9867   1.3906

          k =-0.2500 0.0000-0.2500 (  3393 PWs)   bands (ev):

   -51.4659 -51.4615  -2.6744  -0.6149  -0.5590   0.9884   1.3338

          k = 0.2500-0.2500 0.0000 (  3393 PWs)   bands (ev):

   -51.4660 -51.4613  -2.6736  -0.6212  -0.5603   1.0094   1.3527

          k =-0.2500-0.2500 0.0000 (  3393 PWs)   bands (ev):

   -51.4671 -51.4602  -2.6728  -0.6261  -0.5597   1.0092   1.3896

          k = 0.2500 0.0000 0.5000 (  3398 PWs)   bands (ev):

   -51.4694 -51.4645  -1.9821  -1.7761   0.0565   0.3052   1.5147

          k =-0.5000-0.2500 0.0000 (  3398 PWs)   bands (ev):

   -51.4712 -51.4626  -1.9599  -1.8017   0.0806   0.2722   1.5600

          k = 0.0000-0.5000 0.2500 (  3398 PWs)   bands (ev):

   -51.4679 -51.4659  -1.9434  -1.8229   0.1097   0.2554   1.5795

          k = 0.2500-0.5000 0.0000 (  3398 PWs)   bands (ev):

   -51.4716 -51.4623  -1.9428  -1.8221   0.1049   0.2512   1.5861

          k =-0.5000 0.0000 0.2500 (  3398 PWs)   bands (ev):

   -51.4693 -51.4646  -1.9609  -1.8029   0.0884   0.2789   1.5484

          k =-0.5000 0.0000 0.5000 (  3388 PWs)   bands (ev):

   -51.4719 -51.4541  -1.2973  -1.1613  -1.0189  -0.8781   1.8766

          k =-0.5000 0.5000 0.0000 (  3388 PWs)   bands (ev):

   -51.4671 -51.4588  -1.2587  -1.1648  -1.0209  -0.9241   1.9075

          k =-0.2500-0.2500 0.2500 (  3389 PWs)   bands (ev):

   -51.4655 -51.4600  -2.4103  -0.3550  -0.3420  -0.3102   1.3592

          k =-0.2500 0.2500-0.2500 (  3389 PWs)   bands (ev):

   -51.4697 -51.4559  -2.4114  -0.3490  -0.3379  -0.3100   1.3168

          k = 0.2500-0.2500-0.2500 (  3389 PWs)   bands (ev):

   -51.4683 -51.4573  -2.4104  -0.3504  -0.3477  -0.3097   1.3636

          k =-0.2500 0.2500 0.5000 (  3400 PWs)   bands (ev):

   -51.4693 -51.4661  -1.7233  -1.5113   0.2987   0.3028   0.4482

          k =-0.5000-0.2500 0.2500 (  3400 PWs)   bands (ev):

   -51.4691 -51.4664  -1.7017  -1.5390   0.3153   0.3416   0.4346

          k = 0.5000-0.2500-0.2500 (  3400 PWs)   bands (ev):

   -51.4736 -51.4618  -1.7010  -1.5384   0.2995   0.3095   0.4754

          k =-0.2500-0.5000 0.2500 (  3400 PWs)   bands (ev):

   -51.4709 -51.4645  -1.6834  -1.5593   0.3126   0.3168   0.4831

          k =-0.2500 0.5000-0.2500 (  3400 PWs)   bands (ev):

   -51.4685 -51.4669  -1.6843  -1.5601   0.3294   0.3758   0.4196

          k =-0.5000 0.2500 0.5000 (  3396 PWs)   bands (ev):

   -51.4708 -51.4617  -1.0380  -0.8841  -0.7802  -0.6229   0.9015

          k =-0.5000 0.5000 0.2500 (  3396 PWs)   bands (ev):

   -51.4682 -51.4642  -0.9985  -0.8899  -0.7834  -0.6724   0.9512

     the Fermi energy is    -1.6757 ev

!    total energy              =     -29.79601526 Ry
     total all-electron energy =       -29.796038 Ry
     estimated scf accuracy    <          4.8E-09 Ry
     smearing contrib. (-TS)   =      -0.00186182 Ry
     internal energy E=F+TS    =     -29.79415345 Ry

     The total energy is F=E-TS. E is the sum of the following terms:
     one-electron contribution =     -26.91033042 Ry
     hartree contribution      =       9.80231225 Ry
     xc contribution           =      -6.72916927 Ry
     ewald contribution        =      -6.10092641 Ry
     one-center paw contrib.   =       0.14396041 Ry

     convergence has been achieved in   5 iterations

     Forces acting on atoms (cartesian axes, Ry/au):

     atom    1 type  1   force =    -0.00138445    0.00106022   -0.00176365
     atom    2 type  1   force =     0.00138445   -0.00106022    0.00176365

     Total force =     0.003507     Total SCF correction =     0.000026


     Computing stress (Cartesian axis) and pressure

          total   stress  (Ry/bohr**3)                   (kbar)     P=      -62.82
  -0.00042717   0.00000028  -0.00000050          -62.84        0.04       -0.07
   0.00000028  -0.00042814   0.00000038            0.04      -62.98        0.06
  -0.00000050   0.00000038  -0.00042573           -0.07        0.06      -62.63


     Writing all to output data dir ./tmp/Li_config_7.save/ :
     XML data file, charge density, pseudopotentials, collected wavefunctions

     init_run     :      0.48s CPU      0.50s WALL (       1 calls)
     electrons    :      4.01s CPU      4.19s WALL (       1 calls)
     forces       :      0.08s CPU      0.09s WALL (       1 calls)
     stress       :      0.44s CPU      0.49s WALL (       1 calls)

     Called by init_run:
     wfcinit      :      0.29s CPU      0.30s WALL (       1 calls)
     potinit      :      0.07s CPU      0.08s WALL (       1 calls)
     hinit0       :      0.07s CPU      0.07s WALL (       1 calls)

     Called by electrons:
     c_bands      :      2.83s CPU      2.94s WALL (       6 calls)
     sum_band     :      0.73s CPU      0.76s WALL (       6 calls)
     v_of_rho     :      0.23s CPU      0.24s WALL (       6 calls)
     newd         :      0.15s CPU      0.17s WALL (       6 calls)
     PAW_pot      :      0.13s CPU      0.13s WALL (       6 calls)
     mix_rho      :      0.02s CPU      0.02s WALL (       6 calls)

     Called by c_bands:
     init_us_2    :      0.10s CPU      0.12s WALL (     540 calls)
     cegterg      :      2.72s CPU      2.83s WALL (     216 calls)

     Called by *egterg:
     cdiaghg      :      0.02s CPU      0.02s WALL (     677 calls)
     h_psi        :      2.57s CPU      2.61s WALL (     749 calls)
     s_psi        :      0.06s CPU      0.06s WALL (     749 calls)
     g_psi        :      0.01s CPU      0.01s WALL (     497 calls)

     Called by h_psi:
     h_psi:calbec :      0.09s CPU      0.10s WALL (     749 calls)
     vloc_psi     :      2.41s CPU      2.42s WALL (     749 calls)
     add_vuspsi   :      0.06s CPU      0.07s WALL (     749 calls)

     General routines
     calbec       :      0.14s CPU      0.16s WALL (    1145 calls)
     fft          :      0.13s CPU      0.14s WALL (      85 calls)
     ffts         :      0.01s CPU      0.01s WALL (      12 calls)
     fftw         :      2.34s CPU      2.35s WALL (    9608 calls)
     interpolate  :      0.01s CPU      0.02s WALL (       6 calls)

     Parallel routines

     PWSCF        :      5.05s CPU      5.31s WALL


   This run was terminated on:   8:13:34  21Jan2025            

=------------------------------------------------------------------------------=
   JOB DONE.
=------------------------------------------------------------------------------=
Note: The following floating-point exceptions are signalling: IEEE_INVALID_FLAG IEEE_DIVIDE_BY_ZERO IEEE_OVERFLOW_FLAG IEEE_UNDERFLOW_FLAG
