[Mac:25620] shmem: mmap: an error occurred while determining whether or not /var/folders/hy/k_vp1md94sz2dr40dtrs6ln80000gn/T//ompi.Mac.501/jf.0/2858745856/sm_segment.Mac.501.aa650000.0 could be created.

     Program PWSCF v.7.3.1 starts on 21Jan2025 at  8:12:56 

     This program is part of the open-source Quantum ESPRESSO suite
     for quantum simulation of materials; please cite
         "P. Giannozzi et al., J. Phys.:Condens. Matter 21 395502 (2009);
         "P. Giannozzi et al., J. Phys.:Condens. Matter 29 465901 (2017);
         "P. Giannozzi et al., J. Chem. Phys. 152 154105 (2020);
          URL http://www.quantum-espresso.org", 
     in publications or presentations arising from this work. More details at
     http://www.quantum-espresso.org/quote

     Parallel version (MPI), running on     1 processors

     MPI processes distributed on     1 nodes
     0 MiB available memory on the printing compute node when the environment starts

     Reading input from Li_config_1.in

     Current dimensions of program PWSCF are:
     Max number of different atomic species (ntypx) = 10
     Max number of k-points (npk) =  40000
     Max angular momentum in pseudopotentials (lmaxx) =  4

     Subspace diagonalization in iterative solution of the eigenvalue problem:
     a serial algorithm will be used


     G-vector sticks info
     --------------------
     sticks:   dense  smooth     PW     G-vecs:    dense   smooth      PW
     Sum        2661    1069    325               103311    26001    4337

     Using Slab Decomposition



     bravais-lattice index     =            1
     lattice parameter (alat)  =      10.5584  a.u.
     unit-cell volume          =    1177.0377 (a.u.)^3
     number of atoms/cell      =            2
     number of atomic types    =            1
     number of electrons       =         6.00
     number of Kohn-Sham states=            7
     kinetic-energy cutoff     =      30.0000  Ry
     charge density cutoff     =     300.0000  Ry
     scf convergence threshold =      1.0E-08
     mixing beta               =       0.7000
     number of iterations used =            8  plain     mixing
     Exchange-correlation= SLA  PW   PBX  PBC
                           (   1   4   3   4   0   0   0)

     celldm(1)=  10.558368  celldm(2)=   0.000000  celldm(3)=   0.000000
     celldm(4)=   0.000000  celldm(5)=   0.000000  celldm(6)=   0.000000

     crystal axes: (cart. coord. in units of alat)
               a(1) = (   1.000000   0.000000   0.000000 )  
               a(2) = (   0.000000   1.000000   0.000000 )  
               a(3) = (   0.000000   0.000000   1.000000 )  

     reciprocal axes: (cart. coord. in units 2 pi/alat)
               b(1) = (  1.000000  0.000000  0.000000 )  
               b(2) = (  0.000000  1.000000  0.000000 )  
               b(3) = (  0.000000  0.000000  1.000000 )  


     PseudoPot. # 1 for Li read from file:
     ../pseudopotentials/Li.pbe-s-kjpaw_psl.1.0.0.UPF
     MD5 check sum: d3662511b3860c829f7212fdb89d6128
     Pseudo is Projector augmented-wave, Zval =  3.0
     Generated using &quot;atomic&quot; code by A. Dal Corso  v.6.3
     Shape of augmentation charge: PSQ
     Using radial grid of 1017 points,  4 beta functions with: 
                l(1) =   0
                l(2) =   0
                l(3) =   1
                l(4) =   1
     Q(r) pseudized with 0 coefficients 


     atomic species   valence    mass     pseudopotential
     Li                3.00     6.94000     Li( 1.00)

     No symmetry found



   Cartesian axes

     site n.     atom                  positions (alat units)
         1        Li     tau(   1) = (   0.0324990   0.0484780   0.0140410  )
         2        Li     tau(   2) = (   0.4532300   0.5498990   0.5408640  )

     number of k points=    36  Gaussian smearing, width (Ry)=  0.0100
                       cart. coord. in units 2pi/alat
        k(    1) = (   0.0000000   0.0000000   0.0000000), wk =   0.0312500
        k(    2) = (   0.0000000   0.0000000   0.2500000), wk =   0.0625000
        k(    3) = (   0.0000000   0.0000000  -0.5000000), wk =   0.0312500
        k(    4) = (   0.0000000   0.2500000   0.2500000), wk =   0.0625000
        k(    5) = (   0.0000000   0.2500000  -0.5000000), wk =   0.0625000
        k(    6) = (   0.0000000  -0.5000000  -0.5000000), wk =   0.0312500
        k(    7) = (   0.2500000   0.2500000   0.2500000), wk =   0.0625000
        k(    8) = (   0.2500000   0.2500000  -0.5000000), wk =   0.0625000
        k(    9) = (   0.2500000  -0.5000000  -0.5000000), wk =   0.0625000
        k(   10) = (  -0.5000000  -0.5000000  -0.5000000), wk =   0.0312500
        k(   11) = (   0.2500000   0.0000000   0.0000000), wk =   0.0625000
        k(   12) = (   0.0000000   0.2500000   0.0000000), wk =   0.0625000
        k(   13) = (  -0.5000000   0.0000000   0.0000000), wk =   0.0312500
        k(   14) = (   0.0000000  -0.5000000   0.0000000), wk =   0.0312500
        k(   15) = (   0.0000000  -0.2500000   0.2500000), wk =   0.0625000
        k(   16) = (   0.2500000   0.0000000  -0.2500000), wk =   0.0625000
        k(   17) = (  -0.2500000   0.0000000  -0.2500000), wk =   0.0625000
        k(   18) = (   0.2500000  -0.2500000   0.0000000), wk =   0.0625000
        k(   19) = (  -0.2500000  -0.2500000   0.0000000), wk =   0.0625000
        k(   20) = (   0.2500000   0.0000000   0.5000000), wk =   0.0625000
        k(   21) = (  -0.5000000  -0.2500000   0.0000000), wk =   0.0625000
        k(   22) = (   0.0000000  -0.5000000   0.2500000), wk =   0.0625000
        k(   23) = (   0.2500000  -0.5000000   0.0000000), wk =   0.0625000
        k(   24) = (  -0.5000000   0.0000000   0.2500000), wk =   0.0625000
        k(   25) = (  -0.5000000   0.0000000   0.5000000), wk =   0.0312500
        k(   26) = (  -0.5000000   0.5000000   0.0000000), wk =   0.0312500
        k(   27) = (  -0.2500000  -0.2500000   0.2500000), wk =   0.0625000
        k(   28) = (  -0.2500000   0.2500000  -0.2500000), wk =   0.0625000
        k(   29) = (   0.2500000  -0.2500000  -0.2500000), wk =   0.0625000
        k(   30) = (  -0.2500000   0.2500000   0.5000000), wk =   0.0625000
        k(   31) = (  -0.5000000  -0.2500000   0.2500000), wk =   0.0625000
        k(   32) = (   0.5000000  -0.2500000  -0.2500000), wk =   0.0625000
        k(   33) = (  -0.2500000  -0.5000000   0.2500000), wk =   0.0625000
        k(   34) = (  -0.2500000   0.5000000  -0.2500000), wk =   0.0625000
        k(   35) = (  -0.5000000   0.2500000   0.5000000), wk =   0.0625000
        k(   36) = (  -0.5000000   0.5000000   0.2500000), wk =   0.0625000

     Dense  grid:   103311 G-vectors     FFT dimensions: (  60,  60,  60)

     Smooth grid:    26001 G-vectors     FFT dimensions: (  40,  40,  40)

     Estimated max dynamical RAM per process >     150.12 MB

     Initial potential from superposition of free atoms

     starting charge       5.9908, renormalised to       6.0000
     Starting wfcs are   10 randomized atomic wfcs
     Checking if some PAW data can be deallocated... 

     total cpu time spent up to now is        0.6 secs

     Self-consistent Calculation

     iteration #  1     ecut=    30.00 Ry     beta= 0.70
     Davidson diagonalization with overlap
     ethr =  1.00E-02,  avg # of iterations =  2.0

     Threshold (ethr) on eigenvalues was too large:
     Diagonalizing with lowered threshold

     Davidson diagonalization with overlap
     ethr =  2.80E-04,  avg # of iterations =  1.3

     total cpu time spent up to now is        2.0 secs

     total energy              =     -29.80010923 Ry
     estimated scf accuracy    <       0.01736148 Ry

     iteration #  2     ecut=    30.00 Ry     beta= 0.70
     Davidson diagonalization with overlap
     ethr =  2.89E-04,  avg # of iterations =  1.0

     total cpu time spent up to now is        2.7 secs

     total energy              =     -29.80091776 Ry
     estimated scf accuracy    <       0.00104337 Ry

     iteration #  3     ecut=    30.00 Ry     beta= 0.70
     Davidson diagonalization with overlap
     ethr =  1.74E-05,  avg # of iterations =  2.9

     total cpu time spent up to now is        3.4 secs

     total energy              =     -29.80104265 Ry
     estimated scf accuracy    <       0.00001491 Ry

     iteration #  4     ecut=    30.00 Ry     beta= 0.70
     Davidson diagonalization with overlap
     ethr =  2.49E-07,  avg # of iterations =  4.1

     total cpu time spent up to now is        4.4 secs

     total energy              =     -29.80104733 Ry
     estimated scf accuracy    <       0.00000022 Ry

     iteration #  5     ecut=    30.00 Ry     beta= 0.70
     Davidson diagonalization with overlap
     ethr =  3.66E-09,  avg # of iterations =  2.7

     total cpu time spent up to now is        5.1 secs

     End of self-consistent calculation

          k = 0.0000 0.0000 0.0000 (  3239 PWs)   bands (ev):

   -51.3761 -51.3596  -3.2092   0.5555   0.5628   0.6318   1.2203

          k = 0.0000 0.0000 0.2500 (  3234 PWs)   bands (ev):

   -51.3713 -51.3603  -2.9376  -0.8014   0.8236   0.8890   1.5030

          k = 0.0000 0.0000-0.5000 (  3250 PWs)   bands (ev):

   -51.3737 -51.3712  -2.1714  -2.0807   1.4955   1.5102   1.6421

          k = 0.0000 0.2500 0.2500 (  3265 PWs)   bands (ev):

   -51.3813 -51.3762  -2.6673  -0.5895  -0.4835   1.1314   1.5016

          k = 0.0000 0.2500-0.5000 (  3294 PWs)   bands (ev):

   -51.3927 -51.3884  -1.9051  -1.8115   0.1945   0.3118   1.7294

          k = 0.0000-0.5000-0.5000 (  3276 PWs)   bands (ev):

   -51.3843 -51.3833  -1.1590  -1.1564  -0.9426  -0.9398   2.0761

          k = 0.2500 0.2500 0.2500 (  3275 PWs)   bands (ev):

   -51.3883 -51.3779  -2.3994  -0.3134  -0.2888  -0.2083   1.4919

          k = 0.2500 0.2500-0.5000 (  3272 PWs)   bands (ev):

   -51.3873 -51.3775  -1.6402  -1.5435   0.4175   0.4327   0.5620

          k = 0.2500-0.5000-0.5000 (  3252 PWs)   bands (ev):

   -51.3752 -51.3744  -0.8828  -0.8796  -0.6963  -0.6930   1.1387

          k =-0.5000-0.5000-0.5000 (  3184 PWs)   bands (ev):

   -51.3479 -51.3469  -0.2530  -0.2494  -0.0474  -0.0434   0.0785

          k = 0.2500 0.0000 0.0000 (  3234 PWs)   bands (ev):

   -51.3673 -51.3642  -2.9391  -0.7806   0.8118   0.8196   1.5610

          k = 0.0000 0.2500 0.0000 (  3234 PWs)   bands (ev):

   -51.3709 -51.3607  -2.9374  -0.8042   0.8309   0.8926   1.4969

          k =-0.5000 0.0000 0.0000 (  3250 PWs)   bands (ev):

   -51.3750 -51.3699  -2.2523  -1.9839   1.3469   1.3491   1.8886

          k = 0.0000-0.5000 0.0000 (  3250 PWs)   bands (ev):

   -51.3725 -51.3724  -2.1295  -2.1247   1.5490   1.5577   1.6154

          k = 0.0000-0.2500 0.2500 (  3265 PWs)   bands (ev):

   -51.3809 -51.3766  -2.6673  -0.5897  -0.4835   1.1314   1.5027

          k = 0.2500 0.0000-0.2500 (  3265 PWs)   bands (ev):

   -51.3811 -51.3765  -2.6696  -0.5743  -0.4786   1.0707   1.4515

          k =-0.2500 0.0000-0.2500 (  3265 PWs)   bands (ev):

   -51.3846 -51.3730  -2.6696  -0.5801  -0.4772   1.0688   1.4952

          k = 0.2500-0.2500 0.0000 (  3265 PWs)   bands (ev):

   -51.3836 -51.3739  -2.6695  -0.5791  -0.4778   1.0774   1.4736

          k =-0.2500-0.2500 0.0000 (  3265 PWs)   bands (ev):

   -51.3839 -51.3737  -2.6695  -0.5794  -0.4778   1.0772   1.4760

          k = 0.2500 0.0000 0.5000 (  3294 PWs)   bands (ev):

   -51.3961 -51.3850  -1.9081  -1.8144   0.2150   0.3302   1.7086

          k =-0.5000-0.2500 0.0000 (  3294 PWs)   bands (ev):

   -51.3913 -51.3897  -1.9890  -1.7113   0.0881   0.4312   1.5758

          k = 0.0000-0.5000 0.2500 (  3294 PWs)   bands (ev):

   -51.3908 -51.3902  -1.8622  -1.8573   0.2514   0.2576   1.7934

          k = 0.2500-0.5000 0.0000 (  3294 PWs)   bands (ev):

   -51.3908 -51.3902  -1.8648  -1.8599   0.2686   0.2747   1.7931

          k =-0.5000 0.0000 0.2500 (  3294 PWs)   bands (ev):

   -51.3918 -51.3893  -1.9892  -1.7117   0.0908   0.4332   1.5695

          k =-0.5000 0.0000 0.5000 (  3276 PWs)   bands (ev):

   -51.3883 -51.3793  -1.2612  -1.1746  -0.9093  -0.8171   2.0065

          k =-0.5000 0.5000 0.0000 (  3276 PWs)   bands (ev):

   -51.3839 -51.3836  -1.2199  -1.2152  -0.8680  -0.8631   2.0487

          k =-0.2500-0.2500 0.2500 (  3275 PWs)   bands (ev):

   -51.3879 -51.3783  -2.3999  -0.3139  -0.2834  -0.2082   1.4698

          k =-0.2500 0.2500-0.2500 (  3275 PWs)   bands (ev):

   -51.3882 -51.3780  -2.3994  -0.3136  -0.2885  -0.2083   1.4912

          k = 0.2500-0.2500-0.2500 (  3275 PWs)   bands (ev):

   -51.3879 -51.3783  -2.3999  -0.3138  -0.2833  -0.2082   1.4681

          k =-0.2500 0.2500 0.5000 (  3272 PWs)   bands (ev):

   -51.3868 -51.3780  -1.6403  -1.5435   0.4192   0.4341   0.5596

          k =-0.5000-0.2500 0.2500 (  3272 PWs)   bands (ev):

   -51.3836 -51.3811  -1.7236  -1.4373   0.3023   0.3794   0.5777

          k = 0.5000-0.2500-0.2500 (  3272 PWs)   bands (ev):

   -51.3834 -51.3813  -1.7236  -1.4374   0.3028   0.3795   0.5772

          k =-0.2500-0.5000 0.2500 (  3272 PWs)   bands (ev):

   -51.3825 -51.3822  -1.5962  -1.5911   0.4590   0.4605   0.5737

          k =-0.2500 0.5000-0.2500 (  3272 PWs)   bands (ev):

   -51.3828 -51.3819  -1.5956  -1.5905   0.4256   0.4265   0.6117

          k =-0.5000 0.2500 0.5000 (  3252 PWs)   bands (ev):

   -51.3769 -51.3727  -0.9929  -0.8974  -0.6551  -0.5549   1.0052

          k =-0.5000 0.5000 0.2500 (  3252 PWs)   bands (ev):

   -51.3749 -51.3747  -0.9486  -0.9436  -0.6096  -0.6042   1.0621

     the Fermi energy is    -1.6433 ev

!    total energy              =     -29.80104755 Ry
     total all-electron energy =       -29.801070 Ry
     estimated scf accuracy    <          3.9E-09 Ry
     smearing contrib. (-TS)   =      -0.00187141 Ry
     internal energy E=F+TS    =     -29.79917614 Ry

     The total energy is F=E-TS. E is the sum of the following terms:
     one-electron contribution =     -26.78764899 Ry
     hartree contribution      =       9.75824102 Ry
     xc contribution           =      -6.73424446 Ry
     ewald contribution        =      -6.17946534 Ry
     one-center paw contrib.   =       0.14394163 Ry

     convergence has been achieved in   5 iterations

     Forces acting on atoms (cartesian axes, Ry/au):

     atom    1 type  1   force =     0.00216912   -0.00003815   -0.00072932
     atom    2 type  1   force =    -0.00216912    0.00003815    0.00072932

     Total force =     0.003237     Total SCF correction =     0.000035


     Computing stress (Cartesian axis) and pressure

          total   stress  (Ry/bohr**3)                   (kbar)     P=      -65.39
  -0.00044034   0.00000002   0.00000028          -64.78        0.00        0.04
   0.00000002  -0.00044707  -0.00000001            0.00      -65.77       -0.00
   0.00000028  -0.00000001  -0.00044605            0.04       -0.00      -65.62


     Writing all to output data dir ./tmp/Li_config_1.save/ :
     XML data file, charge density, pseudopotentials, collected wavefunctions

     init_run     :      0.48s CPU      0.53s WALL (       1 calls)
     electrons    :      4.09s CPU      4.53s WALL (       1 calls)
     forces       :      0.08s CPU      0.10s WALL (       1 calls)
     stress       :      0.42s CPU      0.44s WALL (       1 calls)

     Called by init_run:
     wfcinit      :      0.29s CPU      0.31s WALL (       1 calls)
     potinit      :      0.07s CPU      0.08s WALL (       1 calls)
     hinit0       :      0.07s CPU      0.08s WALL (       1 calls)

     Called by electrons:
     c_bands      :      2.90s CPU      3.23s WALL (       6 calls)
     sum_band     :      0.73s CPU      0.81s WALL (       6 calls)
     v_of_rho     :      0.23s CPU      0.25s WALL (       6 calls)
     newd         :      0.15s CPU      0.17s WALL (       6 calls)
     PAW_pot      :      0.13s CPU      0.13s WALL (       6 calls)
     mix_rho      :      0.02s CPU      0.02s WALL (       6 calls)

     Called by c_bands:
     init_us_2    :      0.10s CPU      0.13s WALL (     540 calls)
     cegterg      :      2.80s CPU      3.11s WALL (     216 calls)

     Called by *egterg:
     cdiaghg      :      0.02s CPU      0.03s WALL (     687 calls)
     h_psi        :      2.63s CPU      2.79s WALL (     759 calls)
     s_psi        :      0.07s CPU      0.10s WALL (     759 calls)
     g_psi        :      0.01s CPU      0.01s WALL (     507 calls)

     Called by h_psi:
     h_psi:calbec :      0.09s CPU      0.13s WALL (     759 calls)
     vloc_psi     :      2.46s CPU      2.55s WALL (     759 calls)
     add_vuspsi   :      0.07s CPU      0.10s WALL (     759 calls)

     General routines
     calbec       :      0.14s CPU      0.21s WALL (    1155 calls)
     fft          :      0.13s CPU      0.13s WALL (      85 calls)
     ffts         :      0.01s CPU      0.01s WALL (      12 calls)
     fftw         :      2.38s CPU      2.44s WALL (    9632 calls)
     interpolate  :      0.01s CPU      0.02s WALL (       6 calls)

     Parallel routines

     PWSCF        :      5.10s CPU      5.67s WALL


   This run was terminated on:   8:13: 2  21Jan2025            

=------------------------------------------------------------------------------=
   JOB DONE.
=------------------------------------------------------------------------------=
Note: The following floating-point exceptions are signalling: IEEE_INVALID_FLAG IEEE_DIVIDE_BY_ZERO IEEE_OVERFLOW_FLAG IEEE_UNDERFLOW_FLAG
