[Mac:25659] shmem: mmap: an error occurred while determining whether or not /var/folders/hy/k_vp1md94sz2dr40dtrs6ln80000gn/T//ompi.Mac.501/jf.0/2393047040/sm_segment.Mac.501.8ea30000.0 could be created.

     Program PWSCF v.7.3.1 starts on 21Jan2025 at  8:13:39 

     This program is part of the open-source Quantum ESPRESSO suite
     for quantum simulation of materials; please cite
         "P. Giannozzi et al., J. Phys.:Condens. Matter 21 395502 (2009);
         "P. Giannozzi et al., J. Phys.:Condens. Matter 29 465901 (2017);
         "P. Giannozzi et al., J. Chem. Phys. 152 154105 (2020);
          URL http://www.quantum-espresso.org", 
     in publications or presentations arising from this work. More details at
     http://www.quantum-espresso.org/quote

     Parallel version (MPI), running on     1 processors

     MPI processes distributed on     1 nodes
     0 MiB available memory on the printing compute node when the environment starts

     Reading input from Li_config_9.in

     Current dimensions of program PWSCF are:
     Max number of different atomic species (ntypx) = 10
     Max number of k-points (npk) =  40000
     Max angular momentum in pseudopotentials (lmaxx) =  4

     Subspace diagonalization in iterative solution of the eigenvalue problem:
     a serial algorithm will be used


     G-vector sticks info
     --------------------
     sticks:   dense  smooth     PW     G-vecs:    dense   smooth      PW
     Sum        2509     997    293                94341    23847    3911

     Using Slab Decomposition



     bravais-lattice index     =            1
     lattice parameter (alat)  =      10.2463  a.u.
     unit-cell volume          =    1075.7368 (a.u.)^3
     number of atoms/cell      =            2
     number of atomic types    =            1
     number of electrons       =         6.00
     number of Kohn-Sham states=            7
     kinetic-energy cutoff     =      30.0000  Ry
     charge density cutoff     =     300.0000  Ry
     scf convergence threshold =      1.0E-08
     mixing beta               =       0.7000
     number of iterations used =            8  plain     mixing
     Exchange-correlation= SLA  PW   PBX  PBC
                           (   1   4   3   4   0   0   0)

     celldm(1)=  10.246338  celldm(2)=   0.000000  celldm(3)=   0.000000
     celldm(4)=   0.000000  celldm(5)=   0.000000  celldm(6)=   0.000000

     crystal axes: (cart. coord. in units of alat)
               a(1) = (   1.000000   0.000000   0.000000 )  
               a(2) = (   0.000000   1.000000   0.000000 )  
               a(3) = (   0.000000   0.000000   1.000000 )  

     reciprocal axes: (cart. coord. in units 2 pi/alat)
               b(1) = (  1.000000  0.000000  0.000000 )  
               b(2) = (  0.000000  1.000000  0.000000 )  
               b(3) = (  0.000000  0.000000  1.000000 )  


     PseudoPot. # 1 for Li read from file:
     ../pseudopotentials/Li.pbe-s-kjpaw_psl.1.0.0.UPF
     MD5 check sum: d3662511b3860c829f7212fdb89d6128
     Pseudo is Projector augmented-wave, Zval =  3.0
     Generated using &quot;atomic&quot; code by A. Dal Corso  v.6.3
     Shape of augmentation charge: PSQ
     Using radial grid of 1017 points,  4 beta functions with: 
                l(1) =   0
                l(2) =   0
                l(3) =   1
                l(4) =   1
     Q(r) pseudized with 0 coefficients 


     atomic species   valence    mass     pseudopotential
     Li                3.00     6.94000     Li( 1.00)

     No symmetry found



   Cartesian axes

     site n.     atom                  positions (alat units)
         1        Li     tau(   1) = (   0.9641690   0.9574050   0.9651750  )
         2        Li     tau(   2) = (   0.4959700   0.4734280   0.4835270  )

     number of k points=    36  Gaussian smearing, width (Ry)=  0.0100
                       cart. coord. in units 2pi/alat
        k(    1) = (   0.0000000   0.0000000   0.0000000), wk =   0.0312500
        k(    2) = (   0.0000000   0.0000000   0.2500000), wk =   0.0625000
        k(    3) = (   0.0000000   0.0000000  -0.5000000), wk =   0.0312500
        k(    4) = (   0.0000000   0.2500000   0.2500000), wk =   0.0625000
        k(    5) = (   0.0000000   0.2500000  -0.5000000), wk =   0.0625000
        k(    6) = (   0.0000000  -0.5000000  -0.5000000), wk =   0.0312500
        k(    7) = (   0.2500000   0.2500000   0.2500000), wk =   0.0625000
        k(    8) = (   0.2500000   0.2500000  -0.5000000), wk =   0.0625000
        k(    9) = (   0.2500000  -0.5000000  -0.5000000), wk =   0.0625000
        k(   10) = (  -0.5000000  -0.5000000  -0.5000000), wk =   0.0312500
        k(   11) = (   0.2500000   0.0000000   0.0000000), wk =   0.0625000
        k(   12) = (   0.0000000   0.2500000   0.0000000), wk =   0.0625000
        k(   13) = (  -0.5000000   0.0000000   0.0000000), wk =   0.0312500
        k(   14) = (   0.0000000  -0.5000000   0.0000000), wk =   0.0312500
        k(   15) = (   0.0000000  -0.2500000   0.2500000), wk =   0.0625000
        k(   16) = (   0.2500000   0.0000000  -0.2500000), wk =   0.0625000
        k(   17) = (  -0.2500000   0.0000000  -0.2500000), wk =   0.0625000
        k(   18) = (   0.2500000  -0.2500000   0.0000000), wk =   0.0625000
        k(   19) = (  -0.2500000  -0.2500000   0.0000000), wk =   0.0625000
        k(   20) = (   0.2500000   0.0000000   0.5000000), wk =   0.0625000
        k(   21) = (  -0.5000000  -0.2500000   0.0000000), wk =   0.0625000
        k(   22) = (   0.0000000  -0.5000000   0.2500000), wk =   0.0625000
        k(   23) = (   0.2500000  -0.5000000   0.0000000), wk =   0.0625000
        k(   24) = (  -0.5000000   0.0000000   0.2500000), wk =   0.0625000
        k(   25) = (  -0.5000000   0.0000000   0.5000000), wk =   0.0312500
        k(   26) = (  -0.5000000   0.5000000   0.0000000), wk =   0.0312500
        k(   27) = (  -0.2500000  -0.2500000   0.2500000), wk =   0.0625000
        k(   28) = (  -0.2500000   0.2500000  -0.2500000), wk =   0.0625000
        k(   29) = (   0.2500000  -0.2500000  -0.2500000), wk =   0.0625000
        k(   30) = (  -0.2500000   0.2500000   0.5000000), wk =   0.0625000
        k(   31) = (  -0.5000000  -0.2500000   0.2500000), wk =   0.0625000
        k(   32) = (   0.5000000  -0.2500000  -0.2500000), wk =   0.0625000
        k(   33) = (  -0.2500000  -0.5000000   0.2500000), wk =   0.0625000
        k(   34) = (  -0.2500000   0.5000000  -0.2500000), wk =   0.0625000
        k(   35) = (  -0.5000000   0.2500000   0.5000000), wk =   0.0625000
        k(   36) = (  -0.5000000   0.5000000   0.2500000), wk =   0.0625000

     Dense  grid:    94341 G-vectors     FFT dimensions: (  60,  60,  60)

     Smooth grid:    23847 G-vectors     FFT dimensions: (  36,  36,  36)

     Estimated max dynamical RAM per process >     138.42 MB

     Initial potential from superposition of free atoms

     starting charge       5.9908, renormalised to       6.0000
     Starting wfcs are   10 randomized atomic wfcs
     Checking if some PAW data can be deallocated... 

     total cpu time spent up to now is        0.5 secs

     Self-consistent Calculation

     iteration #  1     ecut=    30.00 Ry     beta= 0.70
     Davidson diagonalization with overlap
     ethr =  1.00E-02,  avg # of iterations =  2.0

     Threshold (ethr) on eigenvalues was too large:
     Diagonalizing with lowered threshold

     Davidson diagonalization with overlap
     ethr =  2.68E-04,  avg # of iterations =  1.5

     total cpu time spent up to now is        1.6 secs

     total energy              =     -29.81134454 Ry
     estimated scf accuracy    <       0.01657408 Ry

     iteration #  2     ecut=    30.00 Ry     beta= 0.70
     Davidson diagonalization with overlap
     ethr =  2.76E-04,  avg # of iterations =  1.0

     total cpu time spent up to now is        2.1 secs

     total energy              =     -29.81207198 Ry
     estimated scf accuracy    <       0.00097573 Ry

     iteration #  3     ecut=    30.00 Ry     beta= 0.70
     Davidson diagonalization with overlap
     ethr =  1.63E-05,  avg # of iterations =  2.4

     total cpu time spent up to now is        2.7 secs

     total energy              =     -29.81218104 Ry
     estimated scf accuracy    <       0.00001183 Ry

     iteration #  4     ecut=    30.00 Ry     beta= 0.70
     Davidson diagonalization with overlap
     ethr =  1.97E-07,  avg # of iterations =  4.6

     total cpu time spent up to now is        3.5 secs

     total energy              =     -29.81218422 Ry
     estimated scf accuracy    <       0.00000011 Ry

     iteration #  5     ecut=    30.00 Ry     beta= 0.70
     Davidson diagonalization with overlap
     ethr =  1.86E-09,  avg # of iterations =  2.7

     total cpu time spent up to now is        4.1 secs

     End of self-consistent calculation

          k = 0.0000 0.0000 0.0000 (  2945 PWs)   bands (ev):

   -51.1820 -51.1735  -3.2237   0.7658   0.7701   0.7788   1.6674

          k = 0.0000 0.0000 0.2500 (  2982 PWs)   bands (ev):

   -51.1978 -51.1861  -2.9368  -0.6734   1.0535   1.0634   1.9352

          k = 0.0000 0.0000-0.5000 (  2946 PWs)   bands (ev):

   -51.1766 -51.1753  -2.1066  -2.0467   1.8071   1.8209   1.9385

          k = 0.0000 0.2500 0.2500 (  3003 PWs)   bands (ev):

   -51.2072 -51.1941  -2.6507  -0.4795  -0.2945   1.3359   1.7743

          k = 0.0000 0.2500-0.5000 (  2970 PWs)   bands (ev):

   -51.1872 -51.1845  -1.8245  -1.7622   0.4211   0.5030   2.0363

          k = 0.0000-0.5000-0.5000 (  3016 PWs)   bands (ev):

   -51.2059 -51.2050  -1.0876  -1.0735  -0.7880  -0.7725   2.3841

          k = 0.2500 0.2500 0.2500 (  2998 PWs)   bands (ev):

   -51.2069 -51.1887  -2.3643  -0.1764  -0.1722   0.0341   1.8003

          k = 0.2500 0.2500-0.5000 (  2972 PWs)   bands (ev):

   -51.1886 -51.1842  -1.5412  -1.4765   0.6660   0.7090   0.7555

          k = 0.2500-0.5000-0.5000 (  3000 PWs)   bands (ev):

   -51.2008 -51.1966  -0.7854  -0.7671  -0.5336  -0.5136   1.3938

          k =-0.5000-0.5000-0.5000 (  3016 PWs)   bands (ev):

   -51.2082 -51.2038  -0.0005   0.0460   0.1084   0.1984   0.2757

          k = 0.2500 0.0000 0.0000 (  2982 PWs)   bands (ev):

   -51.2025 -51.1815  -2.9370  -0.6710   1.0516   1.0550   1.9441

          k = 0.0000 0.2500 0.0000 (  2982 PWs)   bands (ev):

   -51.1971 -51.1869  -2.9368  -0.6737   1.0542   1.0639   1.9342

          k =-0.5000 0.0000 0.0000 (  2946 PWs)   bands (ev):

   -51.1826 -51.1694  -2.1280  -2.0233   1.7645   1.7721   1.9976

          k = 0.0000-0.5000 0.0000 (  2946 PWs)   bands (ev):

   -51.1762 -51.1757  -2.1029  -2.0506   1.8138   1.8310   1.9289

          k = 0.0000-0.2500 0.2500 (  3003 PWs)   bands (ev):

   -51.2025 -51.1988  -2.6506  -0.4804  -0.2944   1.3356   1.7822

          k = 0.2500 0.0000-0.2500 (  3003 PWs)   bands (ev):

   -51.2040 -51.1973  -2.6506  -0.4790  -0.2943   1.3276   1.7817

          k =-0.2500 0.0000-0.2500 (  3003 PWs)   bands (ev):

   -51.2112 -51.1902  -2.6509  -0.4774  -0.2946   1.3282   1.7667

          k = 0.2500-0.2500 0.0000 (  3003 PWs)   bands (ev):

   -51.2044 -51.1970  -2.6507  -0.4791  -0.2943   1.3284   1.7812

          k =-0.2500-0.2500 0.0000 (  3003 PWs)   bands (ev):

   -51.2107 -51.1907  -2.6509  -0.4777  -0.2946   1.3290   1.7681

          k = 0.2500 0.0000 0.5000 (  2970 PWs)   bands (ev):

   -51.1885 -51.1832  -1.8249  -1.7625   0.4234   0.5050   2.0332

          k =-0.5000-0.2500 0.0000 (  2970 PWs)   bands (ev):

   -51.1913 -51.1805  -1.8466  -1.7382   0.3920   0.5334   1.9929

          k = 0.0000-0.5000 0.2500 (  2970 PWs)   bands (ev):

   -51.1871 -51.1846  -1.8207  -1.7663   0.4265   0.4979   2.0418

          k = 0.2500-0.5000 0.0000 (  2970 PWs)   bands (ev):

   -51.1881 -51.1836  -1.8210  -1.7666   0.4284   0.4997   2.0424

          k =-0.5000 0.0000 0.2500 (  2970 PWs)   bands (ev):

   -51.1915 -51.1802  -1.8467  -1.7382   0.3923   0.5336   1.9937

          k =-0.5000 0.0000 0.5000 (  3016 PWs)   bands (ev):

   -51.2059 -51.2050  -1.1004  -1.0738  -0.7863  -0.7572   2.3855

          k =-0.5000 0.5000 0.0000 (  3016 PWs)   bands (ev):

   -51.2058 -51.2051  -1.0981  -1.0748  -0.7853  -0.7598   2.3820

          k =-0.2500-0.2500 0.2500 (  2998 PWs)   bands (ev):

   -51.2002 -51.1954  -2.3639  -0.1776  -0.1731   0.0335   1.8116

          k =-0.2500 0.2500-0.2500 (  2998 PWs)   bands (ev):

   -51.2005 -51.1950  -2.3639  -0.1778  -0.1727   0.0335   1.8106

          k = 0.2500-0.2500-0.2500 (  2998 PWs)   bands (ev):

   -51.1998 -51.1957  -2.3638  -0.1764  -0.1748   0.0334   1.8143

          k =-0.2500 0.2500 0.5000 (  2972 PWs)   bands (ev):

   -51.1901 -51.1828  -1.5409  -1.4766   0.6477   0.6922   0.7742

          k =-0.5000-0.2500 0.2500 (  2972 PWs)   bands (ev):

   -51.1892 -51.1836  -1.5633  -1.4514   0.6150   0.6896   0.7764

          k = 0.5000-0.2500-0.2500 (  2972 PWs)   bands (ev):

   -51.1891 -51.1837  -1.5636  -1.4513   0.6227   0.6954   0.7681

          k =-0.2500-0.5000 0.2500 (  2972 PWs)   bands (ev):

   -51.1899 -51.1829  -1.5369  -1.4808   0.6522   0.6914   0.7751

          k =-0.2500 0.5000-0.2500 (  2972 PWs)   bands (ev):

   -51.1885 -51.1843  -1.5373  -1.4808   0.6738   0.7130   0.7522

          k =-0.5000 0.2500 0.5000 (  3000 PWs)   bands (ev):

   -51.2026 -51.1948  -0.8008  -0.7670  -0.5316  -0.4946   1.3700

          k =-0.5000 0.5000 0.2500 (  3000 PWs)   bands (ev):

   -51.2021 -51.1952  -0.7981  -0.7684  -0.5303  -0.4978   1.3735

     the Fermi energy is    -1.5621 ev

!    total energy              =     -29.81218434 Ry
     total all-electron energy =       -29.812207 Ry
     estimated scf accuracy    <          1.7E-09 Ry
     smearing contrib. (-TS)   =      -0.00186950 Ry
     internal energy E=F+TS    =     -29.81031484 Ry

     The total energy is F=E-TS. E is the sum of the following terms:
     one-electron contribution =     -26.44978048 Ry
     hartree contribution      =       9.62701526 Ry
     xc contribution           =      -6.74423097 Ry
     ewald contribution        =      -6.38721902 Ry
     one-center paw contrib.   =       0.14390037 Ry

     convergence has been achieved in   5 iterations

     Forces acting on atoms (cartesian axes, Ry/au):

     atom    1 type  1   force =    -0.00084217   -0.00042188   -0.00048100
     atom    2 type  1   force =     0.00084217    0.00042188    0.00048100

     Total force =     0.001496     Total SCF correction =     0.000004


     Computing stress (Cartesian axis) and pressure

          total   stress  (Ry/bohr**3)                   (kbar)     P=      -71.89
  -0.00048796   0.00000001   0.00000001          -71.78        0.00        0.00
   0.00000001  -0.00048917  -0.00000000            0.00      -71.96       -0.00
   0.00000001  -0.00000000  -0.00048901            0.00       -0.00      -71.94


     Writing all to output data dir ./tmp/Li_config_9.save/ :
     XML data file, charge density, pseudopotentials, collected wavefunctions

     init_run     :      0.42s CPU      0.44s WALL (       1 calls)
     electrons    :      3.42s CPU      3.62s WALL (       1 calls)
     forces       :      0.07s CPU      0.08s WALL (       1 calls)
     stress       :      0.38s CPU      0.40s WALL (       1 calls)

     Called by init_run:
     wfcinit      :      0.24s CPU      0.24s WALL (       1 calls)
     potinit      :      0.07s CPU      0.08s WALL (       1 calls)
     hinit0       :      0.07s CPU      0.07s WALL (       1 calls)

     Called by electrons:
     c_bands      :      2.37s CPU      2.51s WALL (       6 calls)
     sum_band     :      0.61s CPU      0.64s WALL (       6 calls)
     v_of_rho     :      0.23s CPU      0.24s WALL (       6 calls)
     newd         :      0.13s CPU      0.15s WALL (       6 calls)
     PAW_pot      :      0.13s CPU      0.13s WALL (       6 calls)
     mix_rho      :      0.02s CPU      0.02s WALL (       6 calls)

     Called by c_bands:
     init_us_2    :      0.09s CPU      0.10s WALL (     540 calls)
     cegterg      :      2.28s CPU      2.41s WALL (     216 calls)

     Called by *egterg:
     cdiaghg      :      0.02s CPU      0.02s WALL (     691 calls)
     h_psi        :      2.11s CPU      2.17s WALL (     763 calls)
     s_psi        :      0.06s CPU      0.07s WALL (     763 calls)
     g_psi        :      0.01s CPU      0.01s WALL (     511 calls)

     Called by h_psi:
     h_psi:calbec :      0.08s CPU      0.11s WALL (     763 calls)
     vloc_psi     :      1.96s CPU      1.98s WALL (     763 calls)
     add_vuspsi   :      0.06s CPU      0.07s WALL (     763 calls)

     General routines
     calbec       :      0.13s CPU      0.16s WALL (    1159 calls)
     fft          :      0.13s CPU      0.13s WALL (      85 calls)
     ffts         :      0.01s CPU      0.01s WALL (      12 calls)
     fftw         :      1.83s CPU      1.85s WALL (    9854 calls)
     interpolate  :      0.01s CPU      0.01s WALL (       6 calls)

     Parallel routines

     PWSCF        :      4.33s CPU      4.58s WALL


   This run was terminated on:   8:13:43  21Jan2025            

=------------------------------------------------------------------------------=
   JOB DONE.
=------------------------------------------------------------------------------=
Note: The following floating-point exceptions are signalling: IEEE_INVALID_FLAG IEEE_DIVIDE_BY_ZERO IEEE_OVERFLOW_FLAG IEEE_UNDERFLOW_FLAG
