 # Bcc Li.
  
           2  atoms
           1  atom types
 
      0.000000000000       3.510000000000  xlo xhi
      0.000000000000       3.510000000000  ylo yhi
      0.000000000000       3.510000000000  zlo zhi
 
Masses
 
            1   6.94000000              # Li
 
Atoms # atomic
 
         1    1        0.000000000000       0.000000000000       0.000000000000
         2    1        1.755000000000       1.755000000000       1.755000000000
