[Williams-MacBook-Air.local:94581] shmem: mmap: an error occurred while determining whether or not /var/folders/hy/k_vp1md94sz2dr40dtrs6ln80000gn/T//ompi.Williams-MacBook-Air.501/jf.0/3820290048/sm_segment.Williams-MacBook-Air.501.e3b50000.0 could be created.

     Program PWSCF v.7.3.1 starts on 28Jan2025 at 10: 5:53 

     This program is part of the open-source Quantum ESPRESSO suite
     for quantum simulation of materials; please cite
         "P. Giannozzi et al., J. Phys.:Condens. Matter 21 395502 (2009);
         "P. Giannozzi et al., J. Phys.:Condens. Matter 29 465901 (2017);
         "P. Giannozzi et al., J. Chem. Phys. 152 154105 (2020);
          URL http://www.quantum-espresso.org", 
     in publications or presentations arising from this work. More details at
     http://www.quantum-espresso.org/quote

     Parallel version (MPI), running on     1 processors

     MPI processes distributed on     1 nodes
     0 MiB available memory on the printing compute node when the environment starts

     Reading input from Li_config_4.in

     Current dimensions of program PWSCF are:
     Max number of different atomic species (ntypx) = 10
     Max number of k-points (npk) =  40000
     Max angular momentum in pseudopotentials (lmaxx) =  4

     Subspace diagonalization in iterative solution of the eigenvalue problem:
     a serial algorithm will be used


     G-vector sticks info
     --------------------
     sticks:   dense  smooth     PW     G-vecs:    dense   smooth      PW
     Sum        2501    2161    609                93885    75445   11459

     Using Slab Decomposition



     bravais-lattice index     =            1
     lattice parameter (alat)  =      10.2248  a.u.
     unit-cell volume          =    1068.9753 (a.u.)^3
     number of atoms/cell      =            2
     number of atomic types    =            1
     number of electrons       =         6.00
     number of Kohn-Sham states=            7
     kinetic-energy cutoff     =      65.0000  Ry
     charge density cutoff     =     300.0000  Ry
     scf convergence threshold =      1.0E-08
     mixing beta               =       0.7000
     number of iterations used =            8  plain     mixing
     Exchange-correlation= SLA  PW   PBX  PBC
                           (   1   4   3   4   0   0   0)

     celldm(1)=  10.224825  celldm(2)=   0.000000  celldm(3)=   0.000000
     celldm(4)=   0.000000  celldm(5)=   0.000000  celldm(6)=   0.000000

     crystal axes: (cart. coord. in units of alat)
               a(1) = (   1.000000   0.000000   0.000000 )  
               a(2) = (   0.000000   1.000000   0.000000 )  
               a(3) = (   0.000000   0.000000   1.000000 )  

     reciprocal axes: (cart. coord. in units 2 pi/alat)
               b(1) = (  1.000000  0.000000  0.000000 )  
               b(2) = (  0.000000  1.000000  0.000000 )  
               b(3) = (  0.000000  0.000000  1.000000 )  


     PseudoPot. # 1 for Li read from file:
     ../../pseudopotentials/Li.pbe-s-kjpaw_psl.1.0.0.UPF
     MD5 check sum: d3662511b3860c829f7212fdb89d6128
     Pseudo is Projector augmented-wave, Zval =  3.0
     Generated using &quot;atomic&quot; code by A. Dal Corso  v.6.3
     Shape of augmentation charge: PSQ
     Using radial grid of 1017 points,  4 beta functions with: 
                l(1) =   0
                l(2) =   0
                l(3) =   1
                l(4) =   1
     Q(r) pseudized with 0 coefficients 


     atomic species   valence    mass     pseudopotential
     Li                3.00     6.94000     Li( 1.00)

      6 Sym. Ops. (no inversion) found



   Cartesian axes

     site n.     atom                  positions (alat units)
         1        Li     tau(   1) = (   0.0000000   0.0000000   0.0000000  )
         2        Li     tau(   2) = (   0.4875000   0.4875000   0.4875000  )

     number of k points=    13  Gaussian smearing, width (Ry)=  0.0100
                       cart. coord. in units 2pi/alat
        k(    1) = (   0.0000000   0.0000000   0.0000000), wk =   0.0312500
        k(    2) = (   0.0000000   0.0000000   0.2500000), wk =   0.1875000
        k(    3) = (   0.0000000   0.0000000  -0.5000000), wk =   0.0937500
        k(    4) = (   0.0000000   0.2500000   0.2500000), wk =   0.1875000
        k(    5) = (   0.0000000   0.2500000  -0.5000000), wk =   0.3750000
        k(    6) = (   0.0000000  -0.5000000  -0.5000000), wk =   0.0937500
        k(    7) = (   0.2500000   0.2500000   0.2500000), wk =   0.0625000
        k(    8) = (   0.2500000   0.2500000  -0.5000000), wk =   0.1875000
        k(    9) = (   0.2500000  -0.5000000  -0.5000000), wk =   0.1875000
        k(   10) = (  -0.5000000  -0.5000000  -0.5000000), wk =   0.0312500
        k(   11) = (  -0.2500000   0.0000000   0.2500000), wk =   0.1875000
        k(   12) = (   0.2500000  -0.2500000   0.2500000), wk =   0.1875000
        k(   13) = (   0.2500000  -0.2500000  -0.5000000), wk =   0.1875000

     Dense  grid:    93885 G-vectors     FFT dimensions: (  60,  60,  60)

     Smooth grid:    75445 G-vectors     FFT dimensions: (  54,  54,  54)

     Estimated max dynamical RAM per process >     142.21 MB

     Initial potential from superposition of free atoms

     starting charge       5.9908, renormalised to       6.0000
     Starting wfcs are   10 randomized atomic wfcs
     Checking if some PAW data can be deallocated... 

     total cpu time spent up to now is        0.5 secs

     Self-consistent Calculation

     iteration #  1     ecut=    65.00 Ry     beta= 0.70
     Davidson diagonalization with overlap
     ethr =  1.00E-02,  avg # of iterations =  2.0

     Threshold (ethr) on eigenvalues was too large:
     Diagonalizing with lowered threshold

     Davidson diagonalization with overlap
     ethr =  6.19E-05,  avg # of iterations =  3.0

     total cpu time spent up to now is        1.9 secs

     total energy              =     -29.95239776 Ry
     estimated scf accuracy    <       0.00345412 Ry

     iteration #  2     ecut=    65.00 Ry     beta= 0.70
     Davidson diagonalization with overlap
     ethr =  5.76E-05,  avg # of iterations =  1.0

     total cpu time spent up to now is        2.4 secs

     total energy              =     -29.95268649 Ry
     estimated scf accuracy    <       0.00035106 Ry

     iteration #  3     ecut=    65.00 Ry     beta= 0.70
     Davidson diagonalization with overlap
     ethr =  5.85E-06,  avg # of iterations =  2.6

     total cpu time spent up to now is        3.2 secs

     total energy              =     -29.95272754 Ry
     estimated scf accuracy    <       0.00000243 Ry

     iteration #  4     ecut=    65.00 Ry     beta= 0.70
     Davidson diagonalization with overlap
     ethr =  4.05E-08,  avg # of iterations =  2.8

     total cpu time spent up to now is        4.0 secs

     total energy              =     -29.95272954 Ry
     estimated scf accuracy    <       0.00000010 Ry

     iteration #  5     ecut=    65.00 Ry     beta= 0.70
     Davidson diagonalization with overlap
     ethr =  1.71E-09,  avg # of iterations =  2.4

     total cpu time spent up to now is        4.7 secs

     End of self-consistent calculation

          k = 0.0000 0.0000 0.0000 (  9459 PWs)   bands (ev):

   -50.4397 -50.4395  -3.2959   0.7937   0.7959   0.7959   1.4265

          k = 0.0000 0.0000 0.2500 (  9478 PWs)   bands (ev):

   -50.4397 -50.4395  -3.0047  -0.7090   1.0828   1.0845   1.7865

          k = 0.0000 0.0000-0.5000 (  9370 PWs)   bands (ev):

   -50.4397 -50.4395  -2.1555  -2.1115   1.8686   1.8747   1.9601

          k = 0.0000 0.2500 0.2500 (  9491 PWs)   bands (ev):

   -50.4397 -50.4395  -2.7138  -0.4624  -0.3824   1.3610   1.7591

          k = 0.0000 0.2500-0.5000 (  9440 PWs)   bands (ev):

   -50.4397 -50.4395  -1.8674  -1.8220   0.3990   0.4553   2.0917

          k = 0.0000-0.5000-0.5000 (  9476 PWs)   bands (ev):

   -50.4397 -50.4395  -1.0734  -1.0595  -0.8956  -0.8811   2.4292

          k = 0.2500 0.2500 0.2500 (  9444 PWs)   bands (ev):

   -50.4397 -50.4395  -2.4230  -0.1563  -0.1563  -0.1012   1.7536

          k = 0.2500 0.2500-0.5000 (  9490 PWs)   bands (ev):

   -50.4397 -50.4395  -1.5789  -1.5320   0.6388   0.6713   0.7099

          k = 0.2500-0.5000-0.5000 (  9504 PWs)   bands (ev):

   -50.4397 -50.4395  -0.7693  -0.7502  -0.6331  -0.6135   1.3732

          k =-0.5000-0.5000-0.5000 (  9448 PWs)   bands (ev):

   -50.4397 -50.4395   0.0778   0.1221   0.1293   0.1302   0.1353

          k =-0.2500 0.0000 0.2500 (  9491 PWs)   bands (ev):

   -50.4397 -50.4395  -2.7137  -0.4628  -0.3825   1.3609   1.7633

          k = 0.2500-0.2500 0.2500 (  9444 PWs)   bands (ev):

   -50.4397 -50.4395  -2.4228  -0.1570  -0.1563  -0.1015   1.7571

          k = 0.2500-0.2500-0.5000 (  9490 PWs)   bands (ev):

   -50.4397 -50.4395  -1.5788  -1.5320   0.6366   0.6620   0.7191

     the Fermi energy is    -1.6074 ev

!    total energy              =     -29.95272957 Ry
     total all-electron energy =       -29.952752 Ry
     estimated scf accuracy    <          7.9E-09 Ry
     smearing contrib. (-TS)   =      -0.00190552 Ry
     internal energy E=F+TS    =     -29.95082406 Ry

     The total energy is F=E-TS. E is the sum of the following terms:
     one-electron contribution =     -26.76131740 Ry
     hartree contribution      =       9.97254587 Ry
     xc contribution           =      -6.92143928 Ry
     ewald contribution        =      -6.40485429 Ry
     one-center paw contrib.   =       0.16424104 Ry

     convergence has been achieved in   5 iterations

     Forces acting on atoms (cartesian axes, Ry/au):

     atom    1 type  1   force =     0.00037523    0.00037523    0.00037523
     atom    2 type  1   force =    -0.00037523   -0.00037523   -0.00037523

     Total force =     0.000919     Total SCF correction =     0.000011


     Computing stress (Cartesian axis) and pressure

          total   stress  (Ry/bohr**3)                   (kbar)     P=      -19.21
  -0.00013061  -0.00000002  -0.00000002          -19.21       -0.00       -0.00
  -0.00000002  -0.00013061  -0.00000002           -0.00      -19.21       -0.00
  -0.00000002  -0.00000002  -0.00013061           -0.00       -0.00      -19.21


     Writing all to output data dir ./tmp/Li_config_4.save/ :
     XML data file, charge density, pseudopotentials, collected wavefunctions

     init_run     :      0.45s CPU      0.48s WALL (       1 calls)
     electrons    :      3.72s CPU      4.25s WALL (       1 calls)
     forces       :      0.07s CPU      0.09s WALL (       1 calls)
     stress       :      0.41s CPU      0.44s WALL (       1 calls)

     Called by init_run:
     wfcinit      :      0.25s CPU      0.26s WALL (       1 calls)
     potinit      :      0.07s CPU      0.08s WALL (       1 calls)
     hinit0       :      0.08s CPU      0.08s WALL (       1 calls)

     Called by electrons:
     c_bands      :      2.64s CPU      3.03s WALL (       6 calls)
     sum_band     :      0.62s CPU      0.68s WALL (       6 calls)
     v_of_rho     :      0.24s CPU      0.26s WALL (       6 calls)
     newd         :      0.14s CPU      0.16s WALL (       6 calls)
     PAW_pot      :      0.13s CPU      0.15s WALL (       6 calls)
     mix_rho      :      0.02s CPU      0.04s WALL (       6 calls)

     Called by c_bands:
     init_us_2    :      0.11s CPU      0.13s WALL (     195 calls)
     cegterg      :      2.53s CPU      2.90s WALL (      78 calls)

     Called by *egterg:
     cdiaghg      :      0.01s CPU      0.01s WALL (     245 calls)
     h_psi        :      2.23s CPU      2.38s WALL (     271 calls)
     s_psi        :      0.09s CPU      0.13s WALL (     271 calls)
     g_psi        :      0.01s CPU      0.01s WALL (     180 calls)

     Called by h_psi:
     h_psi:calbec :      0.12s CPU      0.16s WALL (     271 calls)
     vloc_psi     :      2.01s CPU      2.07s WALL (     271 calls)
     add_vuspsi   :      0.09s CPU      0.13s WALL (     271 calls)

     General routines
     calbec       :      0.19s CPU      0.24s WALL (     414 calls)
     fft          :      0.13s CPU      0.13s WALL (      85 calls)
     ffts         :      0.01s CPU      0.01s WALL (      12 calls)
     fftw         :      2.04s CPU      2.08s WALL (    3538 calls)
     interpolate  :      0.02s CPU      0.02s WALL (       6 calls)

     Parallel routines

     PWSCF        :      4.69s CPU      5.30s WALL


   This run was terminated on:  10: 5:59  28Jan2025            

=------------------------------------------------------------------------------=
   JOB DONE.
=------------------------------------------------------------------------------=
Note: The following floating-point exceptions are signalling: IEEE_INVALID_FLAG IEEE_DIVIDE_BY_ZERO IEEE_OVERFLOW_FLAG IEEE_UNDERFLOW_FLAG
