[Williams-MacBook-Air.local:94565] shmem: mmap: an error occurred while determining whether or not /var/folders/hy/k_vp1md94sz2dr40dtrs6ln80000gn/T//ompi.Williams-MacBook-Air.501/jf.0/3461021696/sm_segment.Williams-MacBook-Air.501.ce4b0000.0 could be created.

     Program PWSCF v.7.3.1 starts on 28Jan2025 at 10: 5:44 

     This program is part of the open-source Quantum ESPRESSO suite
     for quantum simulation of materials; please cite
         "P. Giannozzi et al., J. Phys.:Condens. Matter 21 395502 (2009);
         "P. Giannozzi et al., J. Phys.:Condens. Matter 29 465901 (2017);
         "P. Giannozzi et al., J. Chem. Phys. 152 154105 (2020);
          URL http://www.quantum-espresso.org", 
     in publications or presentations arising from this work. More details at
     http://www.quantum-espresso.org/quote

     Parallel version (MPI), running on     1 processors

     MPI processes distributed on     1 nodes
     0 MiB available memory on the printing compute node when the environment starts

     Reading input from Li_config_2.in

     Current dimensions of program PWSCF are:
     Max number of different atomic species (ntypx) = 10
     Max number of k-points (npk) =  40000
     Max angular momentum in pseudopotentials (lmaxx) =  4

     Subspace diagonalization in iterative solution of the eigenvalue problem:
     a serial algorithm will be used


     G-vector sticks info
     --------------------
     sticks:   dense  smooth     PW     G-vecs:    dense   smooth      PW
     Sum        2241    1941    553                80269    64493    9843

     Using Slab Decomposition



     bravais-lattice index     =            1
     lattice parameter (alat)  =       9.7005  a.u.
     unit-cell volume          =     912.8071 (a.u.)^3
     number of atoms/cell      =            2
     number of atomic types    =            1
     number of electrons       =         6.00
     number of Kohn-Sham states=            7
     kinetic-energy cutoff     =      65.0000  Ry
     charge density cutoff     =     300.0000  Ry
     scf convergence threshold =      1.0E-08
     mixing beta               =       0.7000
     number of iterations used =            8  plain     mixing
     Exchange-correlation= SLA  PW   PBX  PBC
                           (   1   4   3   4   0   0   0)

     celldm(1)=   9.700475  celldm(2)=   0.000000  celldm(3)=   0.000000
     celldm(4)=   0.000000  celldm(5)=   0.000000  celldm(6)=   0.000000

     crystal axes: (cart. coord. in units of alat)
               a(1) = (   1.000000   0.000000   0.000000 )  
               a(2) = (   0.000000   1.000000   0.000000 )  
               a(3) = (   0.000000   0.000000   1.000000 )  

     reciprocal axes: (cart. coord. in units 2 pi/alat)
               b(1) = (  1.000000  0.000000  0.000000 )  
               b(2) = (  0.000000  1.000000  0.000000 )  
               b(3) = (  0.000000  0.000000  1.000000 )  


     PseudoPot. # 1 for Li read from file:
     ../../pseudopotentials/Li.pbe-s-kjpaw_psl.1.0.0.UPF
     MD5 check sum: d3662511b3860c829f7212fdb89d6128
     Pseudo is Projector augmented-wave, Zval =  3.0
     Generated using &quot;atomic&quot; code by A. Dal Corso  v.6.3
     Shape of augmentation charge: PSQ
     Using radial grid of 1017 points,  4 beta functions with: 
                l(1) =   0
                l(2) =   0
                l(3) =   1
                l(4) =   1
     Q(r) pseudized with 0 coefficients 


     atomic species   valence    mass     pseudopotential
     Li                3.00     6.94000     Li( 1.00)

      6 Sym. Ops. (no inversion) found



   Cartesian axes

     site n.     atom                  positions (alat units)
         1        Li     tau(   1) = (   0.0000000   0.0000000   0.0000000  )
         2        Li     tau(   2) = (   0.4625000   0.4625000   0.4625000  )

     number of k points=    13  Gaussian smearing, width (Ry)=  0.0100
                       cart. coord. in units 2pi/alat
        k(    1) = (   0.0000000   0.0000000   0.0000000), wk =   0.0312500
        k(    2) = (   0.0000000   0.0000000   0.2500000), wk =   0.1875000
        k(    3) = (   0.0000000   0.0000000  -0.5000000), wk =   0.0937500
        k(    4) = (   0.0000000   0.2500000   0.2500000), wk =   0.1875000
        k(    5) = (   0.0000000   0.2500000  -0.5000000), wk =   0.3750000
        k(    6) = (   0.0000000  -0.5000000  -0.5000000), wk =   0.0937500
        k(    7) = (   0.2500000   0.2500000   0.2500000), wk =   0.0625000
        k(    8) = (   0.2500000   0.2500000  -0.5000000), wk =   0.1875000
        k(    9) = (   0.2500000  -0.5000000  -0.5000000), wk =   0.1875000
        k(   10) = (  -0.5000000  -0.5000000  -0.5000000), wk =   0.0312500
        k(   11) = (  -0.2500000   0.0000000   0.2500000), wk =   0.1875000
        k(   12) = (   0.2500000  -0.2500000   0.2500000), wk =   0.1875000
        k(   13) = (   0.2500000  -0.2500000  -0.5000000), wk =   0.1875000

     Dense  grid:    80269 G-vectors     FFT dimensions: (  54,  54,  54)

     Smooth grid:    64493 G-vectors     FFT dimensions: (  50,  50,  50)

     Estimated max dynamical RAM per process >     119.76 MB

     Initial potential from superposition of free atoms

     starting charge       5.9908, renormalised to       6.0000
     Starting wfcs are   10 randomized atomic wfcs
     Checking if some PAW data can be deallocated... 

     total cpu time spent up to now is        0.5 secs

     Self-consistent Calculation

     iteration #  1     ecut=    65.00 Ry     beta= 0.70
     Davidson diagonalization with overlap
     ethr =  1.00E-02,  avg # of iterations =  2.1

     Threshold (ethr) on eigenvalues was too large:
     Diagonalizing with lowered threshold

     Davidson diagonalization with overlap
     ethr =  5.56E-05,  avg # of iterations =  2.8

     total cpu time spent up to now is        1.6 secs

     total energy              =     -29.97404142 Ry
     estimated scf accuracy    <       0.00310053 Ry

     iteration #  2     ecut=    65.00 Ry     beta= 0.70
     Davidson diagonalization with overlap
     ethr =  5.17E-05,  avg # of iterations =  1.0

     total cpu time spent up to now is        2.0 secs

     total energy              =     -29.97427407 Ry
     estimated scf accuracy    <       0.00026062 Ry

     iteration #  3     ecut=    65.00 Ry     beta= 0.70
     Davidson diagonalization with overlap
     ethr =  4.34E-06,  avg # of iterations =  3.9

     total cpu time spent up to now is        2.7 secs

     total energy              =     -29.97430461 Ry
     estimated scf accuracy    <       0.00000364 Ry

     iteration #  4     ecut=    65.00 Ry     beta= 0.70
     Davidson diagonalization with overlap
     ethr =  6.07E-08,  avg # of iterations =  2.1

     total cpu time spent up to now is        3.2 secs

     total energy              =     -29.97430583 Ry
     estimated scf accuracy    <       0.00000011 Ry

     iteration #  5     ecut=    65.00 Ry     beta= 0.70
     Davidson diagonalization with overlap
     ethr =  1.82E-09,  avg # of iterations =  2.5

     total cpu time spent up to now is        3.8 secs

     End of self-consistent calculation

          k = 0.0000 0.0000 0.0000 (  8121 PWs)   bands (ev):

   -50.0315 -50.0314  -3.3197   1.1713   1.1927   1.1927   2.2415

          k = 0.0000 0.0000 0.2500 (  8069 PWs)   bands (ev):

   -50.0315 -50.0314  -2.9991  -0.4620   1.4978   1.5140   2.5117

          k = 0.0000 0.0000-0.5000 (  8008 PWs)   bands (ev):

   -50.0315 -50.0314  -2.0995  -1.9757   2.2730   2.3112   2.5597

          k = 0.0000 0.2500 0.2500 (  8118 PWs)   bands (ev):

   -50.0315 -50.0314  -2.6798  -0.2617  -0.0146   1.8145   2.2922

          k = 0.0000 0.2500-0.5000 (  8098 PWs)   bands (ev):

   -50.0315 -50.0314  -1.7864  -1.6573   0.7336   0.9112   2.5590

          k = 0.0000-0.5000-0.5000 (  8068 PWs)   bands (ev):

   -50.0315 -50.0315  -0.9828  -0.9321  -0.5686  -0.5094   3.0123

          k = 0.2500 0.2500 0.2500 (  8069 PWs)   bands (ev):

   -50.0315 -50.0314  -2.3606   0.0786   0.0786   0.3814   2.3580

          k = 0.2500 0.2500-0.5000 (  8068 PWs)   bands (ev):

   -50.0315 -50.0315  -1.4720  -1.3367   0.9652   1.1064   1.1922

          k = 0.2500-0.5000-0.5000 (  8044 PWs)   bands (ev):

   -50.0315 -50.0315  -0.6528  -0.5887  -0.2869  -0.2140   1.8253

          k =-0.5000-0.5000-0.5000 (  8144 PWs)   bands (ev):

   -50.0315 -50.0315   0.1762   0.3120   0.3124   0.6662   0.7101

          k =-0.2500 0.0000 0.2500 (  8118 PWs)   bands (ev):

   -50.0315 -50.0314  -2.6794  -0.2650  -0.0151   1.8135   2.3292

          k = 0.2500-0.2500 0.2500 (  8069 PWs)   bands (ev):

   -50.0315 -50.0314  -2.3597   0.0725   0.0786   0.3791   2.3968

          k = 0.2500-0.2500-0.5000 (  8068 PWs)   bands (ev):

   -50.0315 -50.0315  -1.4711  -1.3362   0.9373   1.0725   1.2226

     the Fermi energy is    -1.4667 ev

!    total energy              =     -29.97430587 Ry
     total all-electron energy =       -29.974329 Ry
     estimated scf accuracy    <          4.7E-09 Ry
     smearing contrib. (-TS)   =      -0.00163221 Ry
     internal energy E=F+TS    =     -29.97267366 Ry

     The total energy is F=E-TS. E is the sum of the following terms:
     one-electron contribution =     -26.25648901 Ry
     hartree contribution      =       9.80214709 Ry
     xc contribution           =      -6.94625001 Ry
     ewald contribution        =      -6.73635260 Ry
     one-center paw contrib.   =       0.16427087 Ry

     convergence has been achieved in   5 iterations

     Forces acting on atoms (cartesian axes, Ry/au):

     atom    1 type  1   force =     0.00063207    0.00063207    0.00063207
     atom    2 type  1   force =    -0.00063207   -0.00063207   -0.00063207

     Total force =     0.001548     Total SCF correction =     0.000011


     Computing stress (Cartesian axis) and pressure

          total   stress  (Ry/bohr**3)                   (kbar)     P=      -22.21
  -0.00015101   0.00000027   0.00000027          -22.21        0.04        0.04
   0.00000027  -0.00015101   0.00000027            0.04      -22.21        0.04
   0.00000027   0.00000027  -0.00015101            0.04        0.04      -22.21


     Writing all to output data dir ./tmp/Li_config_2.save/ :
     XML data file, charge density, pseudopotentials, collected wavefunctions

     init_run     :      0.41s CPU      0.43s WALL (       1 calls)
     electrons    :      3.12s CPU      3.37s WALL (       1 calls)
     forces       :      0.06s CPU      0.07s WALL (       1 calls)
     stress       :      0.34s CPU      0.36s WALL (       1 calls)

     Called by init_run:
     wfcinit      :      0.22s CPU      0.23s WALL (       1 calls)
     potinit      :      0.06s CPU      0.06s WALL (       1 calls)
     hinit0       :      0.08s CPU      0.08s WALL (       1 calls)

     Called by electrons:
     c_bands      :      2.23s CPU      2.42s WALL (       6 calls)
     sum_band     :      0.53s CPU      0.56s WALL (       6 calls)
     v_of_rho     :      0.16s CPU      0.17s WALL (       6 calls)
     newd         :      0.11s CPU      0.13s WALL (       6 calls)
     PAW_pot      :      0.13s CPU      0.13s WALL (       6 calls)
     mix_rho      :      0.02s CPU      0.02s WALL (       6 calls)

     Called by c_bands:
     init_us_2    :      0.09s CPU      0.10s WALL (     195 calls)
     cegterg      :      2.14s CPU      2.32s WALL (      78 calls)

     Called by *egterg:
     cdiaghg      :      0.01s CPU      0.01s WALL (     252 calls)
     h_psi        :      1.97s CPU      2.03s WALL (     278 calls)
     s_psi        :      0.06s CPU      0.09s WALL (     278 calls)
     g_psi        :      0.01s CPU      0.01s WALL (     187 calls)

     Called by h_psi:
     h_psi:calbec :      0.08s CPU      0.10s WALL (     278 calls)
     vloc_psi     :      1.81s CPU      1.82s WALL (     278 calls)
     add_vuspsi   :      0.07s CPU      0.09s WALL (     278 calls)

     General routines
     calbec       :      0.13s CPU      0.16s WALL (     421 calls)
     fft          :      0.08s CPU      0.08s WALL (      85 calls)
     ffts         :      0.01s CPU      0.01s WALL (      12 calls)
     fftw         :      1.89s CPU      1.90s WALL (    3550 calls)
     interpolate  :      0.01s CPU      0.02s WALL (       6 calls)

     Parallel routines

     PWSCF        :      3.97s CPU      4.27s WALL


   This run was terminated on:  10: 5:48  28Jan2025            

=------------------------------------------------------------------------------=
   JOB DONE.
=------------------------------------------------------------------------------=
Note: The following floating-point exceptions are signalling: IEEE_INVALID_FLAG IEEE_DIVIDE_BY_ZERO IEEE_OVERFLOW_FLAG IEEE_UNDERFLOW_FLAG
