[Williams-MacBook-Air.local:94610] shmem: mmap: an error occurred while determining whether or not /var/folders/hy/k_vp1md94sz2dr40dtrs6ln80000gn/T//ompi.Williams-MacBook-Air.501/jf.0/2976120832/sm_segment.Williams-MacBook-Air.501.b1640000.0 could be created.

     Program PWSCF v.7.3.1 starts on 28Jan2025 at 10: 6: 3 

     This program is part of the open-source Quantum ESPRESSO suite
     for quantum simulation of materials; please cite
         "P. Giannozzi et al., J. Phys.:Condens. Matter 21 395502 (2009);
         "P. Giannozzi et al., J. Phys.:Condens. Matter 29 465901 (2017);
         "P. Giannozzi et al., J. Chem. Phys. 152 154105 (2020);
          URL http://www.quantum-espresso.org", 
     in publications or presentations arising from this work. More details at
     http://www.quantum-espresso.org/quote

     Parallel version (MPI), running on     1 processors

     MPI processes distributed on     1 nodes
     0 MiB available memory on the printing compute node when the environment starts

     Reading input from Li_config_6.in

     Current dimensions of program PWSCF are:
     Max number of different atomic species (ntypx) = 10
     Max number of k-points (npk) =  40000
     Max angular momentum in pseudopotentials (lmaxx) =  4

     Subspace diagonalization in iterative solution of the eigenvalue problem:
     a serial algorithm will be used


     G-vector sticks info
     --------------------
     sticks:   dense  smooth     PW     G-vecs:    dense   smooth      PW
     Sum        2757    2385    673               109127    87703   13205

     Using Slab Decomposition



     bravais-lattice index     =            1
     lattice parameter (alat)  =      10.7492  a.u.
     unit-cell volume          =    1242.0109 (a.u.)^3
     number of atoms/cell      =            2
     number of atomic types    =            1
     number of electrons       =         6.00
     number of Kohn-Sham states=            7
     kinetic-energy cutoff     =      65.0000  Ry
     charge density cutoff     =     300.0000  Ry
     scf convergence threshold =      1.0E-08
     mixing beta               =       0.7000
     number of iterations used =            8  plain     mixing
     Exchange-correlation= SLA  PW   PBX  PBC
                           (   1   4   3   4   0   0   0)

     celldm(1)=  10.749175  celldm(2)=   0.000000  celldm(3)=   0.000000
     celldm(4)=   0.000000  celldm(5)=   0.000000  celldm(6)=   0.000000

     crystal axes: (cart. coord. in units of alat)
               a(1) = (   1.000000   0.000000   0.000000 )  
               a(2) = (   0.000000   1.000000   0.000000 )  
               a(3) = (   0.000000   0.000000   1.000000 )  

     reciprocal axes: (cart. coord. in units 2 pi/alat)
               b(1) = (  1.000000  0.000000  0.000000 )  
               b(2) = (  0.000000  1.000000  0.000000 )  
               b(3) = (  0.000000  0.000000  1.000000 )  


     PseudoPot. # 1 for Li read from file:
     ../../pseudopotentials/Li.pbe-s-kjpaw_psl.1.0.0.UPF
     MD5 check sum: d3662511b3860c829f7212fdb89d6128
     Pseudo is Projector augmented-wave, Zval =  3.0
     Generated using &quot;atomic&quot; code by A. Dal Corso  v.6.3
     Shape of augmentation charge: PSQ
     Using radial grid of 1017 points,  4 beta functions with: 
                l(1) =   0
                l(2) =   0
                l(3) =   1
                l(4) =   1
     Q(r) pseudized with 0 coefficients 


     atomic species   valence    mass     pseudopotential
     Li                3.00     6.94000     Li( 1.00)

      6 Sym. Ops. (no inversion) found



   Cartesian axes

     site n.     atom                  positions (alat units)
         1        Li     tau(   1) = (   0.0000000   0.0000000   0.0000000  )
         2        Li     tau(   2) = (   0.5125000   0.5125000   0.5125000  )

     number of k points=    13  Gaussian smearing, width (Ry)=  0.0100
                       cart. coord. in units 2pi/alat
        k(    1) = (   0.0000000   0.0000000   0.0000000), wk =   0.0312500
        k(    2) = (   0.0000000   0.0000000   0.2500000), wk =   0.1875000
        k(    3) = (   0.0000000   0.0000000  -0.5000000), wk =   0.0937500
        k(    4) = (   0.0000000   0.2500000   0.2500000), wk =   0.1875000
        k(    5) = (   0.0000000   0.2500000  -0.5000000), wk =   0.3750000
        k(    6) = (   0.0000000  -0.5000000  -0.5000000), wk =   0.0937500
        k(    7) = (   0.2500000   0.2500000   0.2500000), wk =   0.0625000
        k(    8) = (   0.2500000   0.2500000  -0.5000000), wk =   0.1875000
        k(    9) = (   0.2500000  -0.5000000  -0.5000000), wk =   0.1875000
        k(   10) = (  -0.5000000  -0.5000000  -0.5000000), wk =   0.0312500
        k(   11) = (  -0.2500000   0.0000000   0.2500000), wk =   0.1875000
        k(   12) = (   0.2500000  -0.2500000   0.2500000), wk =   0.1875000
        k(   13) = (   0.2500000  -0.2500000  -0.5000000), wk =   0.1875000

     Dense  grid:   109127 G-vectors     FFT dimensions: (  60,  60,  60)

     Smooth grid:    87703 G-vectors     FFT dimensions: (  60,  60,  60)

     Estimated max dynamical RAM per process >     162.82 MB

     Initial potential from superposition of free atoms

     starting charge       5.9908, renormalised to       6.0000
     Starting wfcs are   10 randomized atomic wfcs
     Checking if some PAW data can be deallocated... 

     total cpu time spent up to now is        0.6 secs

     Self-consistent Calculation

     iteration #  1     ecut=    65.00 Ry     beta= 0.70
     Davidson diagonalization with overlap
     ethr =  1.00E-02,  avg # of iterations =  2.0

     Threshold (ethr) on eigenvalues was too large:
     Diagonalizing with lowered threshold

     Davidson diagonalization with overlap
     ethr =  7.24E-05,  avg # of iterations =  2.0

     total cpu time spent up to now is        2.3 secs

     total energy              =     -29.93227502 Ry
     estimated scf accuracy    <       0.00403216 Ry

     iteration #  2     ecut=    65.00 Ry     beta= 0.70
     Davidson diagonalization with overlap
     ethr =  6.72E-05,  avg # of iterations =  1.2

     total cpu time spent up to now is        3.0 secs

     total energy              =     -29.93266375 Ry
     estimated scf accuracy    <       0.00044591 Ry

     iteration #  3     ecut=    65.00 Ry     beta= 0.70
     Davidson diagonalization with overlap
     ethr =  7.43E-06,  avg # of iterations =  3.3

     total cpu time spent up to now is        4.0 secs

     total energy              =     -29.93271988 Ry
     estimated scf accuracy    <       0.00000296 Ry

     iteration #  4     ecut=    65.00 Ry     beta= 0.70
     Davidson diagonalization with overlap
     ethr =  4.94E-08,  avg # of iterations =  3.1

     total cpu time spent up to now is        4.9 secs

     total energy              =     -29.93272239 Ry
     estimated scf accuracy    <       0.00000008 Ry

     iteration #  5     ecut=    65.00 Ry     beta= 0.70
     Davidson diagonalization with overlap
     ethr =  1.37E-09,  avg # of iterations =  3.4

     total cpu time spent up to now is        5.9 secs

     End of self-consistent calculation

          k = 0.0000 0.0000 0.0000 ( 11067 PWs)   bands (ev):

   -50.7690 -50.7688  -3.2639   0.4743   0.4764   0.4764   0.7368

          k = 0.0000 0.0000 0.2500 ( 11020 PWs)   bands (ev):

   -50.7689 -50.7688  -2.9993  -0.9213   0.7323   0.7339   1.1672

          k = 0.0000 0.0000-0.5000 ( 10892 PWs)   bands (ev):

   -50.7689 -50.7688  -2.2319  -2.1857   1.4279   1.4337   1.5098

          k = 0.0000 0.2500 0.2500 ( 10994 PWs)   bands (ev):

   -50.7689 -50.7688  -2.7350  -0.6982  -0.6244   0.9793   1.2898

          k = 0.0000 0.2500-0.5000 ( 10968 PWs)   bands (ev):

   -50.7689 -50.7688  -1.9700  -1.9228   0.0725   0.1261   1.6204

          k = 0.0000-0.5000-0.5000 ( 10968 PWs)   bands (ev):

   -50.7689 -50.7688  -1.2148  -1.1701  -1.1588  -1.1141   1.9074

          k = 0.2500 0.2500 0.2500 ( 10981 PWs)   bands (ev):

   -50.7689 -50.7688  -2.4712  -0.5034  -0.3495  -0.3495   1.2262

          k = 0.2500 0.2500-0.5000 ( 10988 PWs)   bands (ev):

   -50.7689 -50.7688  -1.7088  -1.6606   0.2326   0.2674   0.4246

          k = 0.2500-0.5000-0.5000 ( 11048 PWs)   bands (ev):

   -50.7689 -50.7688  -0.9632  -0.9326  -0.8806  -0.8501   0.9431

          k =-0.5000-0.5000-0.5000 ( 11056 PWs)   bands (ev):

   -50.7689 -50.7688  -0.3548  -0.3533  -0.1281  -0.0920  -0.0908

          k =-0.2500 0.0000 0.2500 ( 10994 PWs)   bands (ev):

   -50.7689 -50.7688  -2.7350  -0.6980  -0.6248   0.9792   1.2937

          k = 0.2500-0.2500 0.2500 ( 10981 PWs)   bands (ev):

   -50.7689 -50.7688  -2.4712  -0.5033  -0.3502  -0.3495   1.2289

          k = 0.2500-0.2500-0.5000 ( 10988 PWs)   bands (ev):

   -50.7689 -50.7688  -1.7087  -1.6606   0.2319   0.2660   0.4262

     the Fermi energy is    -1.7345 ev

!    total energy              =     -29.93272243 Ry
     total all-electron energy =       -29.932745 Ry
     estimated scf accuracy    <          4.1E-09 Ry
     smearing contrib. (-TS)   =      -0.00201667 Ry
     internal energy E=F+TS    =     -29.93070576 Ry

     The total energy is F=E-TS. E is the sum of the following terms:
     one-electron contribution =     -27.25295875 Ry
     hartree contribution      =      10.15234185 Ry
     xc contribution           =      -6.90194306 Ry
     ewald contribution        =      -6.09242237 Ry
     one-center paw contrib.   =       0.16427657 Ry

     convergence has been achieved in   5 iterations

     Forces acting on atoms (cartesian axes, Ry/au):

     atom    1 type  1   force =    -0.00048237   -0.00048237   -0.00048237
     atom    2 type  1   force =     0.00048237    0.00048237    0.00048237

     Total force =     0.001182     Total SCF correction =     0.000007


     Computing stress (Cartesian axis) and pressure

          total   stress  (Ry/bohr**3)                   (kbar)     P=      -16.22
  -0.00011026  -0.00000005  -0.00000005          -16.22       -0.01       -0.01
  -0.00000005  -0.00011026  -0.00000005           -0.01      -16.22       -0.01
  -0.00000005  -0.00000005  -0.00011026           -0.01       -0.01      -16.22


     Writing all to output data dir ./tmp/Li_config_6.save/ :
     XML data file, charge density, pseudopotentials, collected wavefunctions

     init_run     :      0.57s CPU      0.60s WALL (       1 calls)
     electrons    :      4.85s CPU      5.23s WALL (       1 calls)
     forces       :      0.09s CPU      0.10s WALL (       1 calls)
     stress       :      0.48s CPU      0.51s WALL (       1 calls)

     Called by init_run:
     wfcinit      :      0.35s CPU      0.37s WALL (       1 calls)
     potinit      :      0.07s CPU      0.08s WALL (       1 calls)
     hinit0       :      0.08s CPU      0.08s WALL (       1 calls)

     Called by electrons:
     c_bands      :      3.56s CPU      3.83s WALL (       6 calls)
     sum_band     :      0.81s CPU      0.87s WALL (       6 calls)
     v_of_rho     :      0.24s CPU      0.25s WALL (       6 calls)
     newd         :      0.16s CPU      0.19s WALL (       6 calls)
     PAW_pot      :      0.13s CPU      0.13s WALL (       6 calls)
     mix_rho      :      0.03s CPU      0.03s WALL (       6 calls)

     Called by c_bands:
     init_us_2    :      0.12s CPU      0.14s WALL (     195 calls)
     cegterg      :      3.43s CPU      3.69s WALL (      78 calls)

     Called by *egterg:
     cdiaghg      :      0.01s CPU      0.01s WALL (     259 calls)
     h_psi        :      3.15s CPU      3.25s WALL (     285 calls)
     s_psi        :      0.09s CPU      0.12s WALL (     285 calls)
     g_psi        :      0.01s CPU      0.01s WALL (     194 calls)

     Called by h_psi:
     h_psi:calbec :      0.14s CPU      0.18s WALL (     285 calls)
     vloc_psi     :      2.89s CPU      2.92s WALL (     285 calls)
     add_vuspsi   :      0.10s CPU      0.13s WALL (     285 calls)

     General routines
     calbec       :      0.21s CPU      0.27s WALL (     428 calls)
     fft          :      0.13s CPU      0.13s WALL (      85 calls)
     ffts         :      0.02s CPU      0.02s WALL (      12 calls)
     fftw         :      3.03s CPU      3.05s WALL (    3550 calls)
     interpolate  :      0.02s CPU      0.02s WALL (       6 calls)

     Parallel routines

     PWSCF        :      6.01s CPU      6.51s WALL


   This run was terminated on:  10: 6:10  28Jan2025            

=------------------------------------------------------------------------------=
   JOB DONE.
=------------------------------------------------------------------------------=
Note: The following floating-point exceptions are signalling: IEEE_INVALID_FLAG IEEE_DIVIDE_BY_ZERO IEEE_OVERFLOW_FLAG IEEE_UNDERFLOW_FLAG
