[Williams-MacBook-Air.local:94622] shmem: mmap: an error occurred while determining whether or not /var/folders/hy/k_vp1md94sz2dr40dtrs6ln80000gn/T//ompi.Williams-MacBook-Air.501/jf.0/2654535680/sm_segment.Williams-MacBook-Air.501.9e390000.0 could be created.

     Program PWSCF v.7.3.1 starts on 28Jan2025 at 10: 6:10 

     This program is part of the open-source Quantum ESPRESSO suite
     for quantum simulation of materials; please cite
         "P. Giannozzi et al., J. Phys.:Condens. Matter 21 395502 (2009);
         "P. Giannozzi et al., J. Phys.:Condens. Matter 29 465901 (2017);
         "P. Giannozzi et al., J. Chem. Phys. 152 154105 (2020);
          URL http://www.quantum-espresso.org", 
     in publications or presentations arising from this work. More details at
     http://www.quantum-espresso.org/quote

     Parallel version (MPI), running on     1 processors

     MPI processes distributed on     1 nodes
     0 MiB available memory on the printing compute node when the environment starts

     Reading input from Li_config_7.in

     Current dimensions of program PWSCF are:
     Max number of different atomic species (ntypx) = 10
     Max number of k-points (npk) =  40000
     Max angular momentum in pseudopotentials (lmaxx) =  4

     Subspace diagonalization in iterative solution of the eigenvalue problem:
     a serial algorithm will be used


     G-vector sticks info
     --------------------
     sticks:   dense  smooth     PW     G-vecs:    dense   smooth      PW
     Sum        2885    2509    697               117161    94533   13997

     Using Slab Decomposition



     bravais-lattice index     =            1
     lattice parameter (alat)  =      11.0114  a.u.
     unit-cell volume          =    1335.1243 (a.u.)^3
     number of atoms/cell      =            2
     number of atomic types    =            1
     number of electrons       =         6.00
     number of Kohn-Sham states=            7
     kinetic-energy cutoff     =      65.0000  Ry
     charge density cutoff     =     300.0000  Ry
     scf convergence threshold =      1.0E-08
     mixing beta               =       0.7000
     number of iterations used =            8  plain     mixing
     Exchange-correlation= SLA  PW   PBX  PBC
                           (   1   4   3   4   0   0   0)

     celldm(1)=  11.011350  celldm(2)=   0.000000  celldm(3)=   0.000000
     celldm(4)=   0.000000  celldm(5)=   0.000000  celldm(6)=   0.000000

     crystal axes: (cart. coord. in units of alat)
               a(1) = (   1.000000   0.000000   0.000000 )  
               a(2) = (   0.000000   1.000000   0.000000 )  
               a(3) = (   0.000000   0.000000   1.000000 )  

     reciprocal axes: (cart. coord. in units 2 pi/alat)
               b(1) = (  1.000000  0.000000  0.000000 )  
               b(2) = (  0.000000  1.000000  0.000000 )  
               b(3) = (  0.000000  0.000000  1.000000 )  


     PseudoPot. # 1 for Li read from file:
     ../../pseudopotentials/Li.pbe-s-kjpaw_psl.1.0.0.UPF
     MD5 check sum: d3662511b3860c829f7212fdb89d6128
     Pseudo is Projector augmented-wave, Zval =  3.0
     Generated using &quot;atomic&quot; code by A. Dal Corso  v.6.3
     Shape of augmentation charge: PSQ
     Using radial grid of 1017 points,  4 beta functions with: 
                l(1) =   0
                l(2) =   0
                l(3) =   1
                l(4) =   1
     Q(r) pseudized with 0 coefficients 


     atomic species   valence    mass     pseudopotential
     Li                3.00     6.94000     Li( 1.00)

      6 Sym. Ops. (no inversion) found



   Cartesian axes

     site n.     atom                  positions (alat units)
         1        Li     tau(   1) = (   0.0000000   0.0000000   0.0000000  )
         2        Li     tau(   2) = (   0.5250000   0.5250000   0.5250000  )

     number of k points=    13  Gaussian smearing, width (Ry)=  0.0100
                       cart. coord. in units 2pi/alat
        k(    1) = (   0.0000000   0.0000000   0.0000000), wk =   0.0312500
        k(    2) = (   0.0000000   0.0000000   0.2500000), wk =   0.1875000
        k(    3) = (   0.0000000   0.0000000  -0.5000000), wk =   0.0937500
        k(    4) = (   0.0000000   0.2500000   0.2500000), wk =   0.1875000
        k(    5) = (   0.0000000   0.2500000  -0.5000000), wk =   0.3750000
        k(    6) = (   0.0000000  -0.5000000  -0.5000000), wk =   0.0937500
        k(    7) = (   0.2500000   0.2500000   0.2500000), wk =   0.0625000
        k(    8) = (   0.2500000   0.2500000  -0.5000000), wk =   0.1875000
        k(    9) = (   0.2500000  -0.5000000  -0.5000000), wk =   0.1875000
        k(   10) = (  -0.5000000  -0.5000000  -0.5000000), wk =   0.0312500
        k(   11) = (  -0.2500000   0.0000000   0.2500000), wk =   0.1875000
        k(   12) = (   0.2500000  -0.2500000   0.2500000), wk =   0.1875000
        k(   13) = (   0.2500000  -0.2500000  -0.5000000), wk =   0.1875000

     Dense  grid:   117161 G-vectors     FFT dimensions: (  64,  64,  64)

     Smooth grid:    94533 G-vectors     FFT dimensions: (  60,  60,  60)

     Estimated max dynamical RAM per process >     176.88 MB

     Initial potential from superposition of free atoms

     starting charge       5.9908, renormalised to       6.0000
     Starting wfcs are   10 randomized atomic wfcs
     Checking if some PAW data can be deallocated... 

     total cpu time spent up to now is        0.7 secs

     Self-consistent Calculation

     iteration #  1     ecut=    65.00 Ry     beta= 0.70
     Davidson diagonalization with overlap
     ethr =  1.00E-02,  avg # of iterations =  2.0

     Threshold (ethr) on eigenvalues was too large:
     Diagonalizing with lowered threshold

     Davidson diagonalization with overlap
     ethr =  7.85E-05,  avg # of iterations =  1.8

     total cpu time spent up to now is        2.3 secs

     total energy              =     -29.92306833 Ry
     estimated scf accuracy    <       0.00439509 Ry

     iteration #  2     ecut=    65.00 Ry     beta= 0.70
     Davidson diagonalization with overlap
     ethr =  7.33E-05,  avg # of iterations =  1.4

     total cpu time spent up to now is        3.0 secs

     total energy              =     -29.92352636 Ry
     estimated scf accuracy    <       0.00048957 Ry

     iteration #  3     ecut=    65.00 Ry     beta= 0.70
     Davidson diagonalization with overlap
     ethr =  8.16E-06,  avg # of iterations =  3.3

     total cpu time spent up to now is        4.0 secs

     total energy              =     -29.92359402 Ry
     estimated scf accuracy    <       0.00000508 Ry

     iteration #  4     ecut=    65.00 Ry     beta= 0.70
     Davidson diagonalization with overlap
     ethr =  8.47E-08,  avg # of iterations =  3.5

     total cpu time spent up to now is        5.1 secs

     total energy              =     -29.92359728 Ry
     estimated scf accuracy    <       0.00000011 Ry

     iteration #  5     ecut=    65.00 Ry     beta= 0.70
     Davidson diagonalization with overlap
     ethr =  1.86E-09,  avg # of iterations =  2.8

     total cpu time spent up to now is        6.0 secs

     End of self-consistent calculation

          k = 0.0000 0.0000 0.0000 ( 11753 PWs)   bands (ev):

   -50.9040 -50.9039  -3.2451   0.3338   0.3420   0.3420   0.4421

          k = 0.0000 0.0000 0.2500 ( 11804 PWs)   bands (ev):

   -50.9040 -50.9039  -2.9933  -1.0157   0.5783   0.5843   0.9003

          k = 0.0000 0.0000-0.5000 ( 11804 PWs)   bands (ev):

   -50.9040 -50.9039  -2.2867  -2.1928   1.1797   1.2039   1.3177

          k = 0.0000 0.2500 0.2500 ( 11860 PWs)   bands (ev):

   -50.9040 -50.9039  -2.7420  -0.8381  -0.6921   0.8119   1.0767

          k = 0.0000 0.2500-0.5000 ( 11826 PWs)   bands (ev):

   -50.9040 -50.9039  -2.0381  -1.9426  -0.0938   0.0111   1.3802

          k = 0.0000-0.5000-0.5000 ( 11872 PWs)   bands (ev):

   -50.9040 -50.9039  -1.3538  -1.2892  -1.1987  -1.1341   1.6704

          k = 0.2500 0.2500 0.2500 ( 11785 PWs)   bands (ev):

   -50.9040 -50.9039  -2.4910  -0.6777  -0.4319  -0.4319   0.9922

          k = 0.2500 0.2500-0.5000 ( 11808 PWs)   bands (ev):

   -50.9040 -50.9039  -1.7906  -1.6938   0.0415   0.1133   0.2655

          k = 0.2500-0.5000-0.5000 ( 11832 PWs)   bands (ev):

   -50.9040 -50.9039  -1.1188  -1.0643  -0.9351  -0.8814   0.7271

          k =-0.5000-0.5000-0.5000 ( 11752 PWs)   bands (ev):

   -50.9040 -50.9039  -0.5666  -0.5588  -0.2865  -0.2233  -0.2231

          k =-0.2500 0.0000 0.2500 ( 11860 PWs)   bands (ev):

   -50.9040 -50.9039  -2.7419  -0.8375  -0.6940   0.8115   1.0912

          k = 0.2500-0.2500 0.2500 ( 11785 PWs)   bands (ev):

   -50.9040 -50.9039  -2.4908  -0.6772  -0.4349  -0.4320   1.0021

          k = 0.2500-0.2500-0.5000 ( 11808 PWs)   bands (ev):

   -50.9040 -50.9039  -1.7906  -1.6936   0.0411   0.1090   0.2690

     the Fermi energy is    -1.7920 ev

!    total energy              =     -29.92359734 Ry
     total all-electron energy =       -29.923620 Ry
     estimated scf accuracy    <          3.0E-09 Ry
     smearing contrib. (-TS)   =      -0.00203670 Ry
     internal energy E=F+TS    =     -29.92156064 Ry

     The total energy is F=E-TS. E is the sum of the following terms:
     one-electron contribution =     -27.49580328 Ry
     hartree contribution      =      10.24667384 Ry
     xc contribution           =      -6.89421911 Ry
     ewald contribution        =      -5.94252776 Ry
     one-center paw contrib.   =       0.16431567 Ry

     convergence has been achieved in   5 iterations

     Forces acting on atoms (cartesian axes, Ry/au):

     atom    1 type  1   force =    -0.00101896   -0.00101896   -0.00101896
     atom    2 type  1   force =     0.00101896    0.00101896    0.00101896

     Total force =     0.002496     Total SCF correction =     0.000009


     Computing stress (Cartesian axis) and pressure

          total   stress  (Ry/bohr**3)                   (kbar)     P=      -14.79
  -0.00010054  -0.00000026  -0.00000026          -14.79       -0.04       -0.04
  -0.00000026  -0.00010054  -0.00000026           -0.04      -14.79       -0.04
  -0.00000026  -0.00000026  -0.00010054           -0.04       -0.04      -14.79


     Writing all to output data dir ./tmp/Li_config_7.save/ :
     XML data file, charge density, pseudopotentials, collected wavefunctions

     init_run     :      0.60s CPU      0.64s WALL (       1 calls)
     electrons    :      4.95s CPU      5.32s WALL (       1 calls)
     forces       :      0.10s CPU      0.11s WALL (       1 calls)
     stress       :      0.52s CPU      0.55s WALL (       1 calls)

     Called by init_run:
     wfcinit      :      0.36s CPU      0.38s WALL (       1 calls)
     potinit      :      0.09s CPU      0.10s WALL (       1 calls)
     hinit0       :      0.08s CPU      0.08s WALL (       1 calls)

     Called by electrons:
     c_bands      :      3.54s CPU      3.80s WALL (       6 calls)
     sum_band     :      0.83s CPU      0.88s WALL (       6 calls)
     v_of_rho     :      0.32s CPU      0.34s WALL (       6 calls)
     newd         :      0.17s CPU      0.20s WALL (       6 calls)
     PAW_pot      :      0.13s CPU      0.13s WALL (       6 calls)
     mix_rho      :      0.03s CPU      0.04s WALL (       6 calls)

     Called by c_bands:
     init_us_2    :      0.13s CPU      0.15s WALL (     195 calls)
     cegterg      :      3.41s CPU      3.66s WALL (      78 calls)

     Called by *egterg:
     cdiaghg      :      0.01s CPU      0.01s WALL (     257 calls)
     h_psi        :      3.14s CPU      3.24s WALL (     283 calls)
     s_psi        :      0.10s CPU      0.13s WALL (     283 calls)
     g_psi        :      0.01s CPU      0.01s WALL (     192 calls)

     Called by h_psi:
     h_psi:calbec :      0.13s CPU      0.17s WALL (     283 calls)
     vloc_psi     :      2.89s CPU      2.92s WALL (     283 calls)
     add_vuspsi   :      0.10s CPU      0.14s WALL (     283 calls)

     General routines
     calbec       :      0.21s CPU      0.26s WALL (     426 calls)
     fft          :      0.21s CPU      0.22s WALL (      85 calls)
     ffts         :      0.02s CPU      0.02s WALL (      12 calls)
     fftw         :      3.00s CPU      3.01s WALL (    3532 calls)
     interpolate  :      0.03s CPU      0.03s WALL (       6 calls)

     Parallel routines

     PWSCF        :      6.20s CPU      6.67s WALL


   This run was terminated on:  10: 6:17  28Jan2025            

=------------------------------------------------------------------------------=
   JOB DONE.
=------------------------------------------------------------------------------=
Note: The following floating-point exceptions are signalling: IEEE_INVALID_FLAG IEEE_DIVIDE_BY_ZERO IEEE_OVERFLOW_FLAG IEEE_UNDERFLOW_FLAG
