(written by ASE)

2 atoms
1 atom types

0.0      3.5106389733635357  xlo xhi
0.0      3.5087854184566241  ylo yhi
0.0      3.5080905613772493  zlo zhi
    0.13035735055781489    0.028344462023739248    -0.13044588838813903  xy xz yz

Atoms # atomic

     1   1                       0                       0                       0
     2   1       1.794725738224703      1.6891881848068995      1.7792351730062459
