(written by ASE)

2 atoms
1 atom types

0.0      3.5101817085320466  xlo xhi
0.0      3.5096790211959283  ylo yhi
0.0      3.5095442996348907  zlo zhi
  -0.063980804021477128    0.032278466643283134   -0.056870747528371762  xy xz yz

Atoms # atomic

     1   1                       0                       0                       0
     2   1      1.7469510829502093      1.7567139014192561      1.7613043979787895
