(written by ASE)

2 atoms
1 atom types

0.0      3.5100871270868028  xlo xhi
0.0      3.5098166098337349  ylo yhi
0.0       3.509851561443659  zlo zhi
   0.045250053080123039   -0.020175395151700026   -0.031385018891632581  xy xz yz

Atoms # atomic

     1   1                       0                       0                       0
     2   1      1.7612392333166476       1.735792026556749       1.767805816137112
