(written by ASE)

2 atoms
1 atom types

0.0                  3.5802  xlo xhi
0.0                  3.5802  ylo yhi
0.0                  3.5802  zlo zhi

Atoms # atomic

     1   1                       0                       0                       0
     2   1      1.7549999999999999      1.7549999999999999      1.7549999999999999
