(written by ASE)

2 atoms
1 atom types

0.0      3.5101703027893318  xlo xhi
0.0      3.5103196346264816  ylo yhi
0.0      3.5084265503509768  zlo zhi
   0.021878367576092173    0.065275287597011192    -0.10222802693312337  xy xz yz

Atoms # atomic

     1   1                       0                       0                       0
     2   1      1.7768626139362182      1.7238725325759852      1.7638304177629454
