[Mac:90555] shmem: mmap: an error occurred while determining whether or not /var/folders/hy/k_vp1md94sz2dr40dtrs6ln80000gn/T//ompi.Mac.501/jf.0/2404122624/sm_segment.Mac.501.8f4c0000.0 could be created.

     Program PWSCF v.7.3.1 starts on 28Jan2025 at  1:14:31 

     This program is part of the open-source Quantum ESPRESSO suite
     for quantum simulation of materials; please cite
         "P. Giannozzi et al., J. Phys.:Condens. Matter 21 395502 (2009);
         "P. Giannozzi et al., J. Phys.:Condens. Matter 29 465901 (2017);
         "P. Giannozzi et al., J. Chem. Phys. 152 154105 (2020);
          URL http://www.quantum-espresso.org", 
     in publications or presentations arising from this work. More details at
     http://www.quantum-espresso.org/quote

     Parallel version (MPI), running on     1 processors

     MPI processes distributed on     1 nodes
     0 MiB available memory on the printing compute node when the environment starts

     Reading input from Li_config_16.in

     Current dimensions of program PWSCF are:
     Max number of different atomic species (ntypx) = 10
     Max number of k-points (npk) =  40000
     Max angular momentum in pseudopotentials (lmaxx) =  4
     Found identity + ( -0.5000 -0.5000 -0.5000) symmetry
     This is a supercell, fractional translations are disabled

     Subspace diagonalization in iterative solution of the eigenvalue problem:
     a serial algorithm will be used


     G-vector sticks info
     --------------------
     sticks:   dense  smooth     PW     G-vecs:    dense   smooth      PW
     Sum        2709    2361    665               106143    85735   12965

     Using Slab Decomposition



     bravais-lattice index     =            1
     lattice parameter (alat)  =      10.6620  a.u.
     unit-cell volume          =    1212.0374 (a.u.)^3
     number of atoms/cell      =            2
     number of atomic types    =            1
     number of electrons       =         6.00
     number of Kohn-Sham states=            7
     kinetic-energy cutoff     =      65.0000  Ry
     charge density cutoff     =     300.0000  Ry
     scf convergence threshold =      1.0E-08
     mixing beta               =       0.7000
     number of iterations used =            8  plain     mixing
     Exchange-correlation= SLA  PW   PBX  PBC
                           (   1   4   3   4   0   0   0)

     celldm(1)=  10.662000  celldm(2)=   0.000000  celldm(3)=   0.000000
     celldm(4)=   0.000000  celldm(5)=   0.000000  celldm(6)=   0.000000

     crystal axes: (cart. coord. in units of alat)
               a(1) = (   1.000000   0.000000   0.000000 )  
               a(2) = (   0.000000   1.000000   0.000000 )  
               a(3) = (   0.000000   0.000000   1.000000 )  

     reciprocal axes: (cart. coord. in units 2 pi/alat)
               b(1) = (  1.000000  0.000000  0.000000 )  
               b(2) = (  0.000000  1.000000  0.000000 )  
               b(3) = (  0.000000  0.000000  1.000000 )  


     PseudoPot. # 1 for Li read from file:
     ../../../pseudopotentials/Li.pbe-s-kjpaw_psl.1.0.0.UPF
     MD5 check sum: d3662511b3860c829f7212fdb89d6128
     Pseudo is Projector augmented-wave, Zval =  3.0
     Generated using &quot;atomic&quot; code by A. Dal Corso  v.6.3
     Shape of augmentation charge: PSQ
     Using radial grid of 1017 points,  4 beta functions with: 
                l(1) =   0
                l(2) =   0
                l(3) =   1
                l(4) =   1
     Q(r) pseudized with 0 coefficients 


     atomic species   valence    mass     pseudopotential
     Li                3.00     6.94000     Li( 1.00)

      6 Sym. Ops. (no inversion) found



   Cartesian axes

     site n.     atom                  positions (alat units)
         1        Li     tau(   1) = (   0.1750000   0.1750000   0.1750000  )
         2        Li     tau(   2) = (   0.6750000   0.6750000   0.6750000  )

     number of k points=    13  Gaussian smearing, width (Ry)=  0.0100
                       cart. coord. in units 2pi/alat
        k(    1) = (   0.0000000   0.0000000   0.0000000), wk =   0.0312500
        k(    2) = (   0.0000000   0.0000000   0.2500000), wk =   0.1875000
        k(    3) = (   0.0000000   0.0000000  -0.5000000), wk =   0.0937500
        k(    4) = (   0.0000000   0.2500000   0.2500000), wk =   0.1875000
        k(    5) = (   0.0000000   0.2500000  -0.5000000), wk =   0.3750000
        k(    6) = (   0.0000000  -0.5000000  -0.5000000), wk =   0.0937500
        k(    7) = (   0.2500000   0.2500000   0.2500000), wk =   0.0625000
        k(    8) = (   0.2500000   0.2500000  -0.5000000), wk =   0.1875000
        k(    9) = (   0.2500000  -0.5000000  -0.5000000), wk =   0.1875000
        k(   10) = (  -0.5000000  -0.5000000  -0.5000000), wk =   0.0312500
        k(   11) = (  -0.2500000   0.0000000   0.2500000), wk =   0.1875000
        k(   12) = (   0.2500000  -0.2500000   0.2500000), wk =   0.1875000
        k(   13) = (   0.2500000  -0.2500000  -0.5000000), wk =   0.1875000

     Dense  grid:   106143 G-vectors     FFT dimensions: (  60,  60,  60)

     Smooth grid:    85735 G-vectors     FFT dimensions: (  60,  60,  60)

     Estimated max dynamical RAM per process >     158.85 MB

     Initial potential from superposition of free atoms

     starting charge       5.9908, renormalised to       6.0000
     Starting wfcs are   10 randomized atomic wfcs
     Checking if some PAW data can be deallocated... 

     total cpu time spent up to now is        0.6 secs

     Self-consistent Calculation

     iteration #  1     ecut=    65.00 Ry     beta= 0.70
     Davidson diagonalization with overlap
     ethr =  1.00E-02,  avg # of iterations =  2.0

     Threshold (ethr) on eigenvalues was too large:
     Diagonalizing with lowered threshold

     Davidson diagonalization with overlap
     ethr =  7.00E-05,  avg # of iterations =  2.1

     total cpu time spent up to now is        2.2 secs

     total energy              =     -29.93544135 Ry
     estimated scf accuracy    <       0.00389212 Ry

     iteration #  2     ecut=    65.00 Ry     beta= 0.70
     Davidson diagonalization with overlap
     ethr =  6.49E-05,  avg # of iterations =  1.0

     total cpu time spent up to now is        2.9 secs

     total energy              =     -29.93580683 Ry
     estimated scf accuracy    <       0.00042836 Ry

     iteration #  3     ecut=    65.00 Ry     beta= 0.70
     Davidson diagonalization with overlap
     ethr =  7.14E-06,  avg # of iterations =  3.2

     total cpu time spent up to now is        3.8 secs

     total energy              =     -29.93586254 Ry
     estimated scf accuracy    <       0.00000266 Ry

     iteration #  4     ecut=    65.00 Ry     beta= 0.70
     Davidson diagonalization with overlap
     ethr =  4.44E-08,  avg # of iterations =  3.0

     total cpu time spent up to now is        4.8 secs

     total energy              =     -29.93586444 Ry
     estimated scf accuracy    <       0.00000008 Ry

     iteration #  5     ecut=    65.00 Ry     beta= 0.70
     Davidson diagonalization with overlap
     ethr =  1.40E-09,  avg # of iterations =  2.3

     total cpu time spent up to now is        5.6 secs

     End of self-consistent calculation

          k = 0.0000 0.0000 0.0000 ( 10827 PWs)   bands (ev):

   -50.7211 -50.7209  -3.2701   0.5240   0.5241   0.5241   0.8432

          k = 0.0000 0.0000 0.2500 ( 10747 PWs)   bands (ev):

   -50.7211 -50.7209  -3.0007  -0.8884   0.7868   0.7868   1.2630

          k = 0.0000 0.0000-0.5000 ( 10676 PWs)   bands (ev):

   -50.7211 -50.7209  -2.1978  -2.1978   1.5431   1.5431   1.5431

          k = 0.0000 0.2500 0.2500 ( 10749 PWs)   bands (ev):

   -50.7211 -50.7209  -2.7321  -0.6494  -0.6000   1.0384   1.3650

          k = 0.0000 0.2500-0.5000 ( 10724 PWs)   bands (ev):

   -50.7211 -50.7209  -1.9309  -1.9309   0.1492   0.1492   1.7299

          k = 0.0000-0.5000-0.5000 ( 10704 PWs)   bands (ev):

   -50.7211 -50.7209  -1.1442  -1.1442  -1.1282  -1.1282   1.9898

          k = 0.2500 0.2500 0.2500 ( 10723 PWs)   bands (ev):

   -50.7211 -50.7209  -2.4637  -0.4424  -0.3200  -0.3200   1.3095

          k = 0.2500 0.2500-0.5000 ( 10730 PWs)   bands (ev):

   -50.7211 -50.7209  -1.6645  -1.6644   0.3115   0.3115   0.5081

          k = 0.2500-0.5000-0.5000 ( 10720 PWs)   bands (ev):

   -50.7211 -50.7209  -0.8858  -0.8858  -0.8609  -0.8609   1.0133

          k =-0.5000-0.5000-0.5000 ( 10768 PWs)   bands (ev):

   -50.7211 -50.7209  -0.2792  -0.2791  -0.0189  -0.0189  -0.0189

          k =-0.2500 0.0000 0.2500 ( 10749 PWs)   bands (ev):

   -50.7211 -50.7209  -2.7321  -0.6494  -0.6000   1.0384   1.3650

          k = 0.2500-0.2500 0.2500 ( 10723 PWs)   bands (ev):

   -50.7211 -50.7209  -2.4637  -0.4424  -0.3200  -0.3200   1.3095

          k = 0.2500-0.2500-0.5000 ( 10730 PWs)   bands (ev):

   -50.7211 -50.7209  -1.6645  -1.6644   0.3115   0.3116   0.5081

     the Fermi energy is    -1.7139 ev

!    total energy              =     -29.93586447 Ry
     total all-electron energy =       -29.935887 Ry
     estimated scf accuracy    <          9.4E-10 Ry
     smearing contrib. (-TS)   =      -0.00202036 Ry
     internal energy E=F+TS    =     -29.93384412 Ry

     The total energy is F=E-TS. E is the sum of the following terms:
     one-electron contribution =     -27.17016378 Ry
     hartree contribution      =      10.12069152 Ry
     xc contribution           =      -6.90474586 Ry
     ewald contribution        =      -6.14389440 Ry
     one-center paw contrib.   =       0.16426840 Ry

     convergence has been achieved in   5 iterations

     Forces acting on atoms (cartesian axes, Ry/au):

     atom    1 type  1   force =    -0.00000258   -0.00000258   -0.00000258
     atom    2 type  1   force =     0.00000258    0.00000258    0.00000258

     Total force =     0.000006     Total SCF correction =     0.000015
     SCF correction compared to forces is large: reduce conv_thr to get better values


     Computing stress (Cartesian axis) and pressure

          total   stress  (Ry/bohr**3)                   (kbar)     P=      -16.71
  -0.00011360   0.00000000   0.00000000          -16.71        0.00        0.00
   0.00000000  -0.00011360   0.00000000            0.00      -16.71        0.00
   0.00000000   0.00000000  -0.00011360            0.00        0.00      -16.71


     Writing all to output data dir ./tmp/Li_config_16.save/ :
     XML data file, charge density, pseudopotentials, collected wavefunctions

     init_run     :      0.56s CPU      0.59s WALL (       1 calls)
     electrons    :      4.62s CPU      4.96s WALL (       1 calls)
     forces       :      0.09s CPU      0.10s WALL (       1 calls)
     stress       :      0.48s CPU      0.51s WALL (       1 calls)

     Called by init_run:
     wfcinit      :      0.34s CPU      0.36s WALL (       1 calls)
     potinit      :      0.07s CPU      0.08s WALL (       1 calls)
     hinit0       :      0.08s CPU      0.08s WALL (       1 calls)

     Called by electrons:
     c_bands      :      3.35s CPU      3.59s WALL (       6 calls)
     sum_band     :      0.80s CPU      0.84s WALL (       6 calls)
     v_of_rho     :      0.23s CPU      0.25s WALL (       6 calls)
     newd         :      0.15s CPU      0.18s WALL (       6 calls)
     PAW_pot      :      0.13s CPU      0.13s WALL (       6 calls)
     mix_rho      :      0.03s CPU      0.05s WALL (       6 calls)

     Called by c_bands:
     init_us_2    :      0.12s CPU      0.14s WALL (     195 calls)
     cegterg      :      3.23s CPU      3.45s WALL (      78 calls)

     Called by *egterg:
     cdiaghg      :      0.01s CPU      0.01s WALL (     241 calls)
     h_psi        :      3.02s CPU      3.11s WALL (     267 calls)
     s_psi        :      0.09s CPU      0.12s WALL (     267 calls)
     g_psi        :      0.01s CPU      0.01s WALL (     176 calls)

     Called by h_psi:
     h_psi:calbec :      0.12s CPU      0.15s WALL (     267 calls)
     vloc_psi     :      2.79s CPU      2.81s WALL (     267 calls)
     add_vuspsi   :      0.10s CPU      0.13s WALL (     267 calls)

     General routines
     calbec       :      0.19s CPU      0.24s WALL (     410 calls)
     fft          :      0.13s CPU      0.14s WALL (      85 calls)
     ffts         :      0.02s CPU      0.02s WALL (      12 calls)
     fftw         :      2.93s CPU      2.94s WALL (    3472 calls)
     interpolate  :      0.02s CPU      0.02s WALL (       6 calls)

     Parallel routines

     PWSCF        :      5.78s CPU      6.21s WALL


   This run was terminated on:   1:14:37  28Jan2025            

=------------------------------------------------------------------------------=
   JOB DONE.
=------------------------------------------------------------------------------=
Note: The following floating-point exceptions are signalling: IEEE_INVALID_FLAG IEEE_DIVIDE_BY_ZERO IEEE_OVERFLOW_FLAG IEEE_UNDERFLOW_FLAG
