[Mac:90527] shmem: mmap: an error occurred while determining whether or not /var/folders/hy/k_vp1md94sz2dr40dtrs6ln80000gn/T//ompi.Mac.501/jf.0/3011051520/sm_segment.Mac.501.b3790000.0 could be created.

     Program PWSCF v.7.3.1 starts on 28Jan2025 at  1:14:11 

     This program is part of the open-source Quantum ESPRESSO suite
     for quantum simulation of materials; please cite
         "P. Giannozzi et al., J. Phys.:Condens. Matter 21 395502 (2009);
         "P. Giannozzi et al., J. Phys.:Condens. Matter 29 465901 (2017);
         "P. Giannozzi et al., J. Chem. Phys. 152 154105 (2020);
          URL http://www.quantum-espresso.org", 
     in publications or presentations arising from this work. More details at
     http://www.quantum-espresso.org/quote

     Parallel version (MPI), running on     1 processors

     MPI processes distributed on     1 nodes
     0 MiB available memory on the printing compute node when the environment starts

     Reading input from Li_config_13.in

     Current dimensions of program PWSCF are:
     Max number of different atomic species (ntypx) = 10
     Max number of k-points (npk) =  40000
     Max angular momentum in pseudopotentials (lmaxx) =  4
     Found identity + ( -0.5000 -0.5000 -0.5000) symmetry
     This is a supercell, fractional translations are disabled

     Subspace diagonalization in iterative solution of the eigenvalue problem:
     a serial algorithm will be used


     G-vector sticks info
     --------------------
     sticks:   dense  smooth     PW     G-vecs:    dense   smooth      PW
     Sum        2693    2321    665               104199    84127   12557

     Using Slab Decomposition



     bravais-lattice index     =            1
     lattice parameter (alat)  =      10.5870  a.u.
     unit-cell volume          =    1186.6393 (a.u.)^3
     number of atoms/cell      =            2
     number of atomic types    =            1
     number of electrons       =         6.00
     number of Kohn-Sham states=            7
     kinetic-energy cutoff     =      65.0000  Ry
     charge density cutoff     =     300.0000  Ry
     scf convergence threshold =      1.0E-08
     mixing beta               =       0.7000
     number of iterations used =            8  plain     mixing
     Exchange-correlation= SLA  PW   PBX  PBC
                           (   1   4   3   4   0   0   0)

     celldm(1)=  10.587000  celldm(2)=   0.000000  celldm(3)=   0.000000
     celldm(4)=   0.000000  celldm(5)=   0.000000  celldm(6)=   0.000000

     crystal axes: (cart. coord. in units of alat)
               a(1) = (   1.000000   0.000000   0.000000 )  
               a(2) = (   0.000000   1.000000   0.000000 )  
               a(3) = (   0.000000   0.000000   1.000000 )  

     reciprocal axes: (cart. coord. in units 2 pi/alat)
               b(1) = (  1.000000  0.000000  0.000000 )  
               b(2) = (  0.000000  1.000000  0.000000 )  
               b(3) = (  0.000000  0.000000  1.000000 )  


     PseudoPot. # 1 for Li read from file:
     ../../../pseudopotentials/Li.pbe-s-kjpaw_psl.1.0.0.UPF
     MD5 check sum: d3662511b3860c829f7212fdb89d6128
     Pseudo is Projector augmented-wave, Zval =  3.0
     Generated using &quot;atomic&quot; code by A. Dal Corso  v.6.3
     Shape of augmentation charge: PSQ
     Using radial grid of 1017 points,  4 beta functions with: 
                l(1) =   0
                l(2) =   0
                l(3) =   1
                l(4) =   1
     Q(r) pseudized with 0 coefficients 


     atomic species   valence    mass     pseudopotential
     Li                3.00     6.94000     Li( 1.00)

      6 Sym. Ops. (no inversion) found



   Cartesian axes

     site n.     atom                  positions (alat units)
         1        Li     tau(   1) = (   0.1000000   0.1000000   0.1000000  )
         2        Li     tau(   2) = (   0.6000000   0.6000000   0.6000000  )

     number of k points=    13  Gaussian smearing, width (Ry)=  0.0100
                       cart. coord. in units 2pi/alat
        k(    1) = (   0.0000000   0.0000000   0.0000000), wk =   0.0312500
        k(    2) = (   0.0000000   0.0000000   0.2500000), wk =   0.1875000
        k(    3) = (   0.0000000   0.0000000  -0.5000000), wk =   0.0937500
        k(    4) = (   0.0000000   0.2500000   0.2500000), wk =   0.1875000
        k(    5) = (   0.0000000   0.2500000  -0.5000000), wk =   0.3750000
        k(    6) = (   0.0000000  -0.5000000  -0.5000000), wk =   0.0937500
        k(    7) = (   0.2500000   0.2500000   0.2500000), wk =   0.0625000
        k(    8) = (   0.2500000   0.2500000  -0.5000000), wk =   0.1875000
        k(    9) = (   0.2500000  -0.5000000  -0.5000000), wk =   0.1875000
        k(   10) = (  -0.5000000  -0.5000000  -0.5000000), wk =   0.0312500
        k(   11) = (  -0.2500000   0.0000000   0.2500000), wk =   0.1875000
        k(   12) = (   0.2500000  -0.2500000   0.2500000), wk =   0.1875000
        k(   13) = (   0.2500000  -0.2500000  -0.5000000), wk =   0.1875000

     Dense  grid:   104199 G-vectors     FFT dimensions: (  60,  60,  60)

     Smooth grid:    84127 G-vectors     FFT dimensions: (  60,  60,  60)

     Estimated max dynamical RAM per process >     156.17 MB

     Initial potential from superposition of free atoms

     starting charge       5.9908, renormalised to       6.0000
     Starting wfcs are   10 randomized atomic wfcs
     Checking if some PAW data can be deallocated... 

     total cpu time spent up to now is        0.6 secs

     Self-consistent Calculation

     iteration #  1     ecut=    65.00 Ry     beta= 0.70
     Davidson diagonalization with overlap
     ethr =  1.00E-02,  avg # of iterations =  2.0

     Threshold (ethr) on eigenvalues was too large:
     Diagonalizing with lowered threshold

     Davidson diagonalization with overlap
     ethr =  6.96E-05,  avg # of iterations =  2.1

     total cpu time spent up to now is        2.5 secs

     total energy              =     -29.93827335 Ry
     estimated scf accuracy    <       0.00382265 Ry

     iteration #  2     ecut=    65.00 Ry     beta= 0.70
     Davidson diagonalization with overlap
     ethr =  6.37E-05,  avg # of iterations =  1.0

     total cpu time spent up to now is        3.3 secs

     total energy              =     -29.93862300 Ry
     estimated scf accuracy    <       0.00041478 Ry

     iteration #  3     ecut=    65.00 Ry     beta= 0.70
     Davidson diagonalization with overlap
     ethr =  6.91E-06,  avg # of iterations =  3.2

     total cpu time spent up to now is        4.2 secs

     total energy              =     -29.93867513 Ry
     estimated scf accuracy    <       0.00000252 Ry

     iteration #  4     ecut=    65.00 Ry     beta= 0.70
     Davidson diagonalization with overlap
     ethr =  4.20E-08,  avg # of iterations =  2.7

     total cpu time spent up to now is        5.2 secs

     total energy              =     -29.93867684 Ry
     estimated scf accuracy    <       0.00000008 Ry

     iteration #  5     ecut=    65.00 Ry     beta= 0.70
     Davidson diagonalization with overlap
     ethr =  1.32E-09,  avg # of iterations =  3.3

     total cpu time spent up to now is        6.2 secs

     End of self-consistent calculation

          k = 0.0000 0.0000 0.0000 ( 10443 PWs)   bands (ev):

   -50.6755 -50.6754  -3.2747   0.5675   0.5675   0.5675   0.9399

          k = 0.0000 0.0000 0.2500 ( 10495 PWs)   bands (ev):

   -50.6755 -50.6754  -3.0018  -0.8590   0.8345   0.8345   1.3474

          k = 0.0000 0.0000-0.5000 ( 10516 PWs)   bands (ev):

   -50.6755 -50.6754  -2.1879  -2.1879   1.6037   1.6037   1.6037

          k = 0.0000 0.2500 0.2500 ( 10467 PWs)   bands (ev):

   -50.6755 -50.6754  -2.7294  -0.6055  -0.5781   1.0904   1.4293

          k = 0.0000 0.2500-0.5000 ( 10500 PWs)   bands (ev):

   -50.6755 -50.6754  -1.9171  -1.9171   0.1938   0.1938   1.7946

          k = 0.0000-0.5000-0.5000 ( 10568 PWs)   bands (ev):

   -50.6755 -50.6754  -1.1309  -1.1309  -1.0912  -1.0912   2.0612

          k = 0.2500 0.2500 0.2500 ( 10510 PWs)   bands (ev):

   -50.6755 -50.6754  -2.4576  -0.3872  -0.2938  -0.2938   1.3811

          k = 0.2500 0.2500-0.5000 ( 10500 PWs)   bands (ev):

   -50.6755 -50.6754  -1.6467  -1.6467   0.3664   0.3665   0.5472

          k = 0.2500-0.5000-0.5000 ( 10468 PWs)   bands (ev):

   -50.6755 -50.6754  -0.8445  -0.8445  -0.8434  -0.8434   1.0721

          k =-0.5000-0.5000-0.5000 ( 10432 PWs)   bands (ev):

   -50.6755 -50.6754  -0.2137  -0.2136   0.0115   0.0115   0.0115

          k =-0.2500 0.0000 0.2500 ( 10467 PWs)   bands (ev):

   -50.6755 -50.6754  -2.7294  -0.6055  -0.5781   1.0904   1.4293

          k = 0.2500-0.2500 0.2500 ( 10510 PWs)   bands (ev):

   -50.6755 -50.6754  -2.4576  -0.3872  -0.2938  -0.2938   1.3811

          k = 0.2500-0.2500-0.5000 ( 10500 PWs)   bands (ev):

   -50.6755 -50.6754  -1.6467  -1.6467   0.3664   0.3664   0.5472

     the Fermi energy is    -1.6965 ev

!    total energy              =     -29.93867688 Ry
     total all-electron energy =       -29.938700 Ry
     estimated scf accuracy    <          4.0E-09 Ry
     smearing contrib. (-TS)   =      -0.00200368 Ry
     internal energy E=F+TS    =     -29.93667320 Ry

     The total energy is F=E-TS. E is the sum of the following terms:
     one-electron contribution =     -27.10140451 Ry
     hartree contribution      =      10.09527333 Ry
     xc contribution           =      -6.90738302 Ry
     ewald contribution        =      -6.18741873 Ry
     one-center paw contrib.   =       0.16425973 Ry

     convergence has been achieved in   5 iterations

     Forces acting on atoms (cartesian axes, Ry/au):

     atom    1 type  1   force =    -0.00000210   -0.00000210   -0.00000210
     atom    2 type  1   force =     0.00000210    0.00000210    0.00000210

     Total force =     0.000005     Total SCF correction =     0.000008
     SCF correction compared to forces is large: reduce conv_thr to get better values


     Computing stress (Cartesian axis) and pressure

          total   stress  (Ry/bohr**3)                   (kbar)     P=      -17.13
  -0.00011643   0.00000000   0.00000000          -17.13        0.00        0.00
   0.00000000  -0.00011643   0.00000000            0.00      -17.13        0.00
   0.00000000   0.00000000  -0.00011643            0.00        0.00      -17.13


     Writing all to output data dir ./tmp/Li_config_13.save/ :
     XML data file, charge density, pseudopotentials, collected wavefunctions

     init_run     :      0.56s CPU      0.58s WALL (       1 calls)
     electrons    :      4.97s CPU      5.59s WALL (       1 calls)
     forces       :      0.09s CPU      0.11s WALL (       1 calls)
     stress       :      0.46s CPU      0.50s WALL (       1 calls)

     Called by init_run:
     wfcinit      :      0.34s CPU      0.36s WALL (       1 calls)
     potinit      :      0.07s CPU      0.08s WALL (       1 calls)
     hinit0       :      0.08s CPU      0.08s WALL (       1 calls)

     Called by electrons:
     c_bands      :      3.59s CPU      3.93s WALL (       6 calls)
     sum_band     :      0.87s CPU      1.02s WALL (       6 calls)
     v_of_rho     :      0.25s CPU      0.31s WALL (       6 calls)
     newd         :      0.15s CPU      0.18s WALL (       6 calls)
     PAW_pot      :      0.14s CPU      0.14s WALL (       6 calls)
     mix_rho      :      0.03s CPU      0.05s WALL (       6 calls)

     Called by c_bands:
     init_us_2    :      0.12s CPU      0.14s WALL (     195 calls)
     cegterg      :      3.47s CPU      3.79s WALL (      78 calls)

     Called by *egterg:
     cdiaghg      :      0.01s CPU      0.01s WALL (     251 calls)
     h_psi        :      3.19s CPU      3.33s WALL (     277 calls)
     s_psi        :      0.11s CPU      0.14s WALL (     277 calls)
     g_psi        :      0.01s CPU      0.01s WALL (     186 calls)

     Called by h_psi:
     h_psi:calbec :      0.14s CPU      0.18s WALL (     277 calls)
     vloc_psi     :      2.92s CPU      2.98s WALL (     277 calls)
     add_vuspsi   :      0.11s CPU      0.16s WALL (     277 calls)

     General routines
     calbec       :      0.23s CPU      0.29s WALL (     420 calls)
     fft          :      0.13s CPU      0.14s WALL (      85 calls)
     ffts         :      0.02s CPU      0.02s WALL (      12 calls)
     fftw         :      3.08s CPU      3.15s WALL (    3500 calls)
     interpolate  :      0.02s CPU      0.02s WALL (       6 calls)

     Parallel routines

     PWSCF        :      6.12s CPU      6.84s WALL


   This run was terminated on:   1:14:17  28Jan2025            

=------------------------------------------------------------------------------=
   JOB DONE.
=------------------------------------------------------------------------------=
Note: The following floating-point exceptions are signalling: IEEE_INVALID_FLAG IEEE_DIVIDE_BY_ZERO IEEE_OVERFLOW_FLAG IEEE_UNDERFLOW_FLAG
