[Mac:90700] shmem: mmap: an error occurred while determining whether or not /var/folders/hy/k_vp1md94sz2dr40dtrs6ln80000gn/T//ompi.Mac.501/jf.0/1371865088/sm_segment.Mac.501.51c50000.0 could be created.

     Program PWSCF v.7.3.1 starts on 28Jan2025 at  1:20: 3 

     This program is part of the open-source Quantum ESPRESSO suite
     for quantum simulation of materials; please cite
         "P. Giannozzi et al., J. Phys.:Condens. Matter 21 395502 (2009);
         "P. Giannozzi et al., J. Phys.:Condens. Matter 29 465901 (2017);
         "P. Giannozzi et al., J. Chem. Phys. 152 154105 (2020);
          URL http://www.quantum-espresso.org", 
     in publications or presentations arising from this work. More details at
     http://www.quantum-espresso.org/quote

     Parallel version (MPI), running on     1 processors

     MPI processes distributed on     1 nodes
     0 MiB available memory on the printing compute node when the environment starts

     Reading input from Li_config_1.in

     Current dimensions of program PWSCF are:
     Max number of different atomic species (ntypx) = 10
     Max number of k-points (npk) =  40000
     Max angular momentum in pseudopotentials (lmaxx) =  4

     Subspace diagonalization in iterative solution of the eigenvalue problem:
     a serial algorithm will be used


     G-vector sticks info
     --------------------
     sticks:   dense  smooth     PW     G-vecs:    dense   smooth      PW
     Sum        2121    1861    517                73525    59589    9093

     Using Slab Decomposition



     bravais-lattice index     =            1
     lattice parameter (alat)  =       9.4383  a.u.
     unit-cell volume          =     840.7780 (a.u.)^3
     number of atoms/cell      =            2
     number of atomic types    =            1
     number of electrons       =         6.00
     number of Kohn-Sham states=            7
     kinetic-energy cutoff     =      65.0000  Ry
     charge density cutoff     =     300.0000  Ry
     scf convergence threshold =      1.0E-08
     mixing beta               =       0.7000
     number of iterations used =            8  plain     mixing
     Exchange-correlation= SLA  PW   PBX  PBC
                           (   1   4   3   4   0   0   0)

     celldm(1)=   9.438300  celldm(2)=   0.000000  celldm(3)=   0.000000
     celldm(4)=   0.000000  celldm(5)=   0.000000  celldm(6)=   0.000000

     crystal axes: (cart. coord. in units of alat)
               a(1) = (   1.000000   0.000000   0.000000 )  
               a(2) = (   0.000000   1.000000   0.000000 )  
               a(3) = (   0.000000   0.000000   1.000000 )  

     reciprocal axes: (cart. coord. in units 2 pi/alat)
               b(1) = (  1.000000  0.000000  0.000000 )  
               b(2) = (  0.000000  1.000000  0.000000 )  
               b(3) = (  0.000000  0.000000  1.000000 )  


     PseudoPot. # 1 for Li read from file:
     ../../../pseudopotentials/Li.pbe-s-kjpaw_psl.1.0.0.UPF
     MD5 check sum: d3662511b3860c829f7212fdb89d6128
     Pseudo is Projector augmented-wave, Zval =  3.0
     Generated using &quot;atomic&quot; code by A. Dal Corso  v.6.3
     Shape of augmentation charge: PSQ
     Using radial grid of 1017 points,  4 beta functions with: 
                l(1) =   0
                l(2) =   0
                l(3) =   1
                l(4) =   1
     Q(r) pseudized with 0 coefficients 


     atomic species   valence    mass     pseudopotential
     Li                3.00     6.94000     Li( 1.00)

      6 Sym. Ops. (no inversion) found



   Cartesian axes

     site n.     atom                  positions (alat units)
         1        Li     tau(   1) = (   0.0000000   0.0000000   0.0000000  )
         2        Li     tau(   2) = (   0.4500000   0.4500000   0.4500000  )

     number of k points=    13  Gaussian smearing, width (Ry)=  0.0100
                       cart. coord. in units 2pi/alat
        k(    1) = (   0.0000000   0.0000000   0.0000000), wk =   0.0312500
        k(    2) = (   0.0000000   0.0000000   0.2500000), wk =   0.1875000
        k(    3) = (   0.0000000   0.0000000  -0.5000000), wk =   0.0937500
        k(    4) = (   0.0000000   0.2500000   0.2500000), wk =   0.1875000
        k(    5) = (   0.0000000   0.2500000  -0.5000000), wk =   0.3750000
        k(    6) = (   0.0000000  -0.5000000  -0.5000000), wk =   0.0937500
        k(    7) = (   0.2500000   0.2500000   0.2500000), wk =   0.0625000
        k(    8) = (   0.2500000   0.2500000  -0.5000000), wk =   0.1875000
        k(    9) = (   0.2500000  -0.5000000  -0.5000000), wk =   0.1875000
        k(   10) = (  -0.5000000  -0.5000000  -0.5000000), wk =   0.0312500
        k(   11) = (  -0.2500000   0.0000000   0.2500000), wk =   0.1875000
        k(   12) = (   0.2500000  -0.2500000   0.2500000), wk =   0.1875000
        k(   13) = (   0.2500000  -0.2500000  -0.5000000), wk =   0.1875000

     Dense  grid:    73525 G-vectors     FFT dimensions: (  54,  54,  54)

     Smooth grid:    59589 G-vectors     FFT dimensions: (  50,  50,  50)

     Estimated max dynamical RAM per process >     110.71 MB

     Initial potential from superposition of free atoms

     starting charge       5.9908, renormalised to       6.0000
     Starting wfcs are   10 randomized atomic wfcs
     Checking if some PAW data can be deallocated... 

     total cpu time spent up to now is        0.5 secs

     Self-consistent Calculation

     iteration #  1     ecut=    65.00 Ry     beta= 0.70
     Davidson diagonalization with overlap
     ethr =  1.00E-02,  avg # of iterations =  2.2

     Threshold (ethr) on eigenvalues was too large:
     Diagonalizing with lowered threshold

     Davidson diagonalization with overlap
     ethr =  5.34E-05,  avg # of iterations =  3.5

     total cpu time spent up to now is        1.6 secs

     total energy              =     -29.98502967 Ry
     estimated scf accuracy    <       0.00297011 Ry

     iteration #  2     ecut=    65.00 Ry     beta= 0.70
     Davidson diagonalization with overlap
     ethr =  4.95E-05,  avg # of iterations =  1.0

     total cpu time spent up to now is        2.0 secs

     total energy              =     -29.98523992 Ry
     estimated scf accuracy    <       0.00022271 Ry

     iteration #  3     ecut=    65.00 Ry     beta= 0.70
     Davidson diagonalization with overlap
     c_bands:  1 eigenvalues not converged
     ethr =  3.71E-06,  avg # of iterations =  4.4

     total cpu time spent up to now is        2.7 secs

     total energy              =     -29.98526614 Ry
     estimated scf accuracy    <       0.00000435 Ry

     iteration #  4     ecut=    65.00 Ry     beta= 0.70
     Davidson diagonalization with overlap
     ethr =  7.25E-08,  avg # of iterations =  2.1

     total cpu time spent up to now is        3.2 secs

     total energy              =     -29.98526741 Ry
     estimated scf accuracy    <       0.00000011 Ry

     iteration #  5     ecut=    65.00 Ry     beta= 0.70
     Davidson diagonalization with overlap
     ethr =  1.88E-09,  avg # of iterations =  2.2

     total cpu time spent up to now is        3.7 secs

     End of self-consistent calculation

          k = 0.0000 0.0000 0.0000 (  7441 PWs)   bands (ev):

   -49.7991 -49.7988  -3.3273   1.3857   1.4246   1.4246   2.6993

          k = 0.0000 0.0000 0.2500 (  7448 PWs)   bands (ev):

   -49.7990 -49.7988  -2.9912  -0.3232   1.7331   1.7631   2.9098

          k = 0.0000 0.0000-0.5000 (  7464 PWs)   bands (ev):

   -49.7990 -49.7988  -2.0599  -1.9019   2.5018   2.5666   2.8936

          k = 0.0000 0.2500 0.2500 (  7443 PWs)   bands (ev):

   -49.7990 -49.7988  -2.6563  -0.1452   0.1916   2.0720   2.5886

          k = 0.0000 0.2500-0.5000 (  7428 PWs)   bands (ev):

   -49.7990 -49.7988  -1.7336  -1.5679   0.9262   1.1699   2.8264

          k = 0.0000-0.5000-0.5000 (  7452 PWs)   bands (ev):

   -49.7990 -49.7988  -0.9229  -0.8569  -0.3852  -0.2998   3.3284

          k = 0.2500 0.2500 0.2500 (  7451 PWs)   bands (ev):

   -49.7990 -49.7988  -2.3224   0.2136   0.2136   0.6569   2.6897

          k = 0.2500 0.2500-0.5000 (  7440 PWs)   bands (ev):

   -49.7990 -49.7988  -1.4066  -1.2317   1.1150   1.3795   1.4871

          k = 0.2500-0.5000-0.5000 (  7472 PWs)   bands (ev):

   -49.7990 -49.7989  -0.5801  -0.4950  -0.0979   0.0076   2.0792

          k =-0.5000-0.5000-0.5000 (  7400 PWs)   bands (ev):

   -49.7990 -49.7988   0.2392   0.4202   0.4202   0.8001   0.9671

          k =-0.2500 0.0000 0.2500 (  7443 PWs)   bands (ev):

   -49.7990 -49.7988  -2.6556  -0.1505   0.1896   2.0707   2.6531

          k = 0.2500-0.2500 0.2500 (  7451 PWs)   bands (ev):

   -49.7990 -49.7988  -2.3207   0.2031   0.2136   0.6512   2.7638

          k = 0.2500-0.2500-0.5000 (  7440 PWs)   bands (ev):

   -49.7990 -49.7988  -1.4051  -1.2303   1.0758   1.3119   1.5305

     the Fermi energy is    -1.3898 ev

!    total energy              =     -29.98526745 Ry
     total all-electron energy =       -29.985290 Ry
     estimated scf accuracy    <          3.0E-09 Ry
     smearing contrib. (-TS)   =      -0.00150652 Ry
     internal energy E=F+TS    =     -29.98376093 Ry

     The total energy is F=E-TS. E is the sum of the following terms:
     one-electron contribution =     -25.99670681 Ry
     hartree contribution      =       9.71929928 Ry
     xc contribution           =      -6.96060959 Ry
     ewald contribution        =      -6.91005774 Ry
     one-center paw contrib.   =       0.16431394 Ry

     convergence has been achieved in   5 iterations

     Forces acting on atoms (cartesian axes, Ry/au):

     atom    1 type  1   force =     0.00035573    0.00035573    0.00035573
     atom    2 type  1   force =    -0.00035573   -0.00035573   -0.00035573

     Total force =     0.000871     Total SCF correction =     0.000006


     Computing stress (Cartesian axis) and pressure

          total   stress  (Ry/bohr**3)                   (kbar)     P=      -23.61
  -0.00016052   0.00000105   0.00000105          -23.61        0.16        0.16
   0.00000105  -0.00016052   0.00000105            0.16      -23.61        0.16
   0.00000105   0.00000105  -0.00016052            0.16        0.16      -23.61


     Writing all to output data dir ./tmp/Li_config_1.save/ :
     XML data file, charge density, pseudopotentials, collected wavefunctions

     init_run     :      0.39s CPU      0.42s WALL (       1 calls)
     electrons    :      3.06s CPU      3.28s WALL (       1 calls)
     forces       :      0.06s CPU      0.06s WALL (       1 calls)
     stress       :      0.32s CPU      0.33s WALL (       1 calls)

     Called by init_run:
     wfcinit      :      0.21s CPU      0.22s WALL (       1 calls)
     potinit      :      0.06s CPU      0.07s WALL (       1 calls)
     hinit0       :      0.08s CPU      0.08s WALL (       1 calls)

     Called by electrons:
     c_bands      :      2.20s CPU      2.37s WALL (       6 calls)
     sum_band     :      0.51s CPU      0.53s WALL (       6 calls)
     v_of_rho     :      0.16s CPU      0.17s WALL (       6 calls)
     newd         :      0.10s CPU      0.12s WALL (       6 calls)
     PAW_pot      :      0.13s CPU      0.13s WALL (       6 calls)
     mix_rho      :      0.02s CPU      0.02s WALL (       6 calls)

     Called by c_bands:
     init_us_2    :      0.08s CPU      0.09s WALL (     195 calls)
     cegterg      :      2.12s CPU      2.28s WALL (      78 calls)

     Called by *egterg:
     cdiaghg      :      0.01s CPU      0.01s WALL (     266 calls)
     h_psi        :      1.93s CPU      1.99s WALL (     292 calls)
     s_psi        :      0.06s CPU      0.08s WALL (     292 calls)
     g_psi        :      0.01s CPU      0.01s WALL (     201 calls)

     Called by h_psi:
     h_psi:calbec :      0.08s CPU      0.10s WALL (     292 calls)
     vloc_psi     :      1.78s CPU      1.79s WALL (     292 calls)
     add_vuspsi   :      0.06s CPU      0.09s WALL (     292 calls)

     General routines
     calbec       :      0.12s CPU      0.15s WALL (     435 calls)
     fft          :      0.08s CPU      0.08s WALL (      85 calls)
     ffts         :      0.01s CPU      0.01s WALL (      12 calls)
     fftw         :      1.86s CPU      1.87s WALL (    3592 calls)
     interpolate  :      0.01s CPU      0.02s WALL (       6 calls)

     Parallel routines

     PWSCF        :      3.86s CPU      4.17s WALL


   This run was terminated on:   1:20: 7  28Jan2025            

=------------------------------------------------------------------------------=
   JOB DONE.
=------------------------------------------------------------------------------=
Note: The following floating-point exceptions are signalling: IEEE_INVALID_FLAG IEEE_DIVIDE_BY_ZERO IEEE_OVERFLOW_FLAG IEEE_UNDERFLOW_FLAG
