[Mac:90513] shmem: mmap: an error occurred while determining whether or not /var/folders/hy/k_vp1md94sz2dr40dtrs6ln80000gn/T//ompi.Mac.501/jf.0/3065577472/sm_segment.Mac.501.b6b90000.0 could be created.

     Program PWSCF v.7.3.1 starts on 28Jan2025 at  1:13:57 

     This program is part of the open-source Quantum ESPRESSO suite
     for quantum simulation of materials; please cite
         "P. Giannozzi et al., J. Phys.:Condens. Matter 21 395502 (2009);
         "P. Giannozzi et al., J. Phys.:Condens. Matter 29 465901 (2017);
         "P. Giannozzi et al., J. Chem. Phys. 152 154105 (2020);
          URL http://www.quantum-espresso.org", 
     in publications or presentations arising from this work. More details at
     http://www.quantum-espresso.org/quote

     Parallel version (MPI), running on     1 processors

     MPI processes distributed on     1 nodes
     0 MiB available memory on the printing compute node when the environment starts

     Reading input from Li_config_11.in

     Current dimensions of program PWSCF are:
     Max number of different atomic species (ntypx) = 10
     Max number of k-points (npk) =  40000
     Max angular momentum in pseudopotentials (lmaxx) =  4
     Found identity + ( -0.5000 -0.5000 -0.5000) symmetry
     This is a supercell, fractional translations are disabled

     Subspace diagonalization in iterative solution of the eigenvalue problem:
     a serial algorithm will be used


     G-vector sticks info
     --------------------
     sticks:   dense  smooth     PW     G-vecs:    dense   smooth      PW
     Sum        2637    2305    657               102399    82951   12533

     Using Slab Decomposition



     bravais-lattice index     =            1
     lattice parameter (alat)  =      10.5370  a.u.
     unit-cell volume          =    1169.9059 (a.u.)^3
     number of atoms/cell      =            2
     number of atomic types    =            1
     number of electrons       =         6.00
     number of Kohn-Sham states=            7
     kinetic-energy cutoff     =      65.0000  Ry
     charge density cutoff     =     300.0000  Ry
     scf convergence threshold =      1.0E-08
     mixing beta               =       0.7000
     number of iterations used =            8  plain     mixing
     Exchange-correlation= SLA  PW   PBX  PBC
                           (   1   4   3   4   0   0   0)

     celldm(1)=  10.537000  celldm(2)=   0.000000  celldm(3)=   0.000000
     celldm(4)=   0.000000  celldm(5)=   0.000000  celldm(6)=   0.000000

     crystal axes: (cart. coord. in units of alat)
               a(1) = (   1.000000   0.000000   0.000000 )  
               a(2) = (   0.000000   1.000000   0.000000 )  
               a(3) = (   0.000000   0.000000   1.000000 )  

     reciprocal axes: (cart. coord. in units 2 pi/alat)
               b(1) = (  1.000000  0.000000  0.000000 )  
               b(2) = (  0.000000  1.000000  0.000000 )  
               b(3) = (  0.000000  0.000000  1.000000 )  


     PseudoPot. # 1 for Li read from file:
     ../../../pseudopotentials/Li.pbe-s-kjpaw_psl.1.0.0.UPF
     MD5 check sum: d3662511b3860c829f7212fdb89d6128
     Pseudo is Projector augmented-wave, Zval =  3.0
     Generated using &quot;atomic&quot; code by A. Dal Corso  v.6.3
     Shape of augmentation charge: PSQ
     Using radial grid of 1017 points,  4 beta functions with: 
                l(1) =   0
                l(2) =   0
                l(3) =   1
                l(4) =   1
     Q(r) pseudized with 0 coefficients 


     atomic species   valence    mass     pseudopotential
     Li                3.00     6.94000     Li( 1.00)

      6 Sym. Ops. (no inversion) found



   Cartesian axes

     site n.     atom                  positions (alat units)
         1        Li     tau(   1) = (   0.0500000   0.0500000   0.0500000  )
         2        Li     tau(   2) = (   0.5500000   0.5500000   0.5500000  )

     number of k points=    13  Gaussian smearing, width (Ry)=  0.0100
                       cart. coord. in units 2pi/alat
        k(    1) = (   0.0000000   0.0000000   0.0000000), wk =   0.0312500
        k(    2) = (   0.0000000   0.0000000   0.2500000), wk =   0.1875000
        k(    3) = (   0.0000000   0.0000000  -0.5000000), wk =   0.0937500
        k(    4) = (   0.0000000   0.2500000   0.2500000), wk =   0.1875000
        k(    5) = (   0.0000000   0.2500000  -0.5000000), wk =   0.3750000
        k(    6) = (   0.0000000  -0.5000000  -0.5000000), wk =   0.0937500
        k(    7) = (   0.2500000   0.2500000   0.2500000), wk =   0.0625000
        k(    8) = (   0.2500000   0.2500000  -0.5000000), wk =   0.1875000
        k(    9) = (   0.2500000  -0.5000000  -0.5000000), wk =   0.1875000
        k(   10) = (  -0.5000000  -0.5000000  -0.5000000), wk =   0.0312500
        k(   11) = (  -0.2500000   0.0000000   0.2500000), wk =   0.1875000
        k(   12) = (   0.2500000  -0.2500000   0.2500000), wk =   0.1875000
        k(   13) = (   0.2500000  -0.2500000  -0.5000000), wk =   0.1875000

     Dense  grid:   102399 G-vectors     FFT dimensions: (  60,  60,  60)

     Smooth grid:    82951 G-vectors     FFT dimensions: (  60,  60,  60)

     Estimated max dynamical RAM per process >     153.79 MB

     Initial potential from superposition of free atoms

     starting charge       5.9908, renormalised to       6.0000
     Starting wfcs are   10 randomized atomic wfcs
     Checking if some PAW data can be deallocated... 

     total cpu time spent up to now is        0.6 secs

     Self-consistent Calculation

     iteration #  1     ecut=    65.00 Ry     beta= 0.70
     Davidson diagonalization with overlap
     ethr =  1.00E-02,  avg # of iterations =  2.0

     Threshold (ethr) on eigenvalues was too large:
     Diagonalizing with lowered threshold

     Davidson diagonalization with overlap
     ethr =  6.83E-05,  avg # of iterations =  2.1

     total cpu time spent up to now is        2.3 secs

     total energy              =     -29.94017863 Ry
     estimated scf accuracy    <       0.00376853 Ry

     iteration #  2     ecut=    65.00 Ry     beta= 0.70
     Davidson diagonalization with overlap
     ethr =  6.28E-05,  avg # of iterations =  1.0

     total cpu time spent up to now is        3.0 secs

     total energy              =     -29.94051984 Ry
     estimated scf accuracy    <       0.00040615 Ry

     iteration #  3     ecut=    65.00 Ry     beta= 0.70
     Davidson diagonalization with overlap
     ethr =  6.77E-06,  avg # of iterations =  3.2

     total cpu time spent up to now is        3.9 secs

     total energy              =     -29.94057045 Ry
     estimated scf accuracy    <       0.00000248 Ry

     iteration #  4     ecut=    65.00 Ry     beta= 0.70
     Davidson diagonalization with overlap
     ethr =  4.14E-08,  avg # of iterations =  2.5

     total cpu time spent up to now is        4.8 secs

     total energy              =     -29.94057213 Ry
     estimated scf accuracy    <       0.00000007 Ry

     iteration #  5     ecut=    65.00 Ry     beta= 0.70
     Davidson diagonalization with overlap
     ethr =  1.20E-09,  avg # of iterations =  3.5

     total cpu time spent up to now is        5.8 secs

     End of self-consistent calculation

          k = 0.0000 0.0000 0.0000 ( 10395 PWs)   bands (ev):

   -50.6451 -50.6451  -3.2780   0.5971   0.5971   0.5971   1.0017

          k = 0.0000 0.0000 0.2500 ( 10367 PWs)   bands (ev):

   -50.6451 -50.6451  -3.0025  -0.8392   0.8670   0.8671   1.4047

          k = 0.0000 0.0000-0.5000 ( 10380 PWs)   bands (ev):

   -50.6451 -50.6451  -2.1810  -2.1810   1.6449   1.6449   1.6449

          k = 0.0000 0.2500 0.2500 ( 10383 PWs)   bands (ev):

   -50.6451 -50.6451  -2.7278  -0.5764  -0.5632   1.1259   1.4728

          k = 0.0000 0.2500-0.5000 ( 10326 PWs)   bands (ev):

   -50.6451 -50.6451  -1.9075  -1.9075   0.2243   0.2243   1.8386

          k = 0.0000-0.5000-0.5000 ( 10328 PWs)   bands (ev):

   -50.6451 -50.6451  -1.1218  -1.1218  -1.0651  -1.0651   2.1100

          k = 0.2500 0.2500 0.2500 ( 10357 PWs)   bands (ev):

   -50.6451 -50.6451  -2.4532  -0.3497  -0.2759  -0.2759   1.4299

          k = 0.2500 0.2500-0.5000 ( 10312 PWs)   bands (ev):

   -50.6451 -50.6450  -1.6345  -1.6345   0.4041   0.4042   0.5739

          k = 0.2500-0.5000-0.5000 ( 10340 PWs)   bands (ev):

   -50.6451 -50.6451  -0.8313  -0.8313  -0.8167  -0.8167   1.1129

          k =-0.5000-0.5000-0.5000 ( 10432 PWs)   bands (ev):

   -50.6451 -50.6451  -0.1710  -0.1710   0.0323   0.0323   0.0323

          k =-0.2500 0.0000 0.2500 ( 10383 PWs)   bands (ev):

   -50.6451 -50.6451  -2.7278  -0.5764  -0.5632   1.1258   1.4728

          k = 0.2500-0.2500 0.2500 ( 10357 PWs)   bands (ev):

   -50.6451 -50.6451  -2.4532  -0.3497  -0.2759  -0.2759   1.4301

          k = 0.2500-0.2500-0.5000 ( 10312 PWs)   bands (ev):

   -50.6451 -50.6450  -1.6345  -1.6345   0.4041   0.4041   0.5739

     the Fermi energy is    -1.6845 ev

!    total energy              =     -29.94057217 Ry
     total all-electron energy =       -29.940595 Ry
     estimated scf accuracy    <          2.5E-09 Ry
     smearing contrib. (-TS)   =      -0.00199301 Ry
     internal energy E=F+TS    =     -29.93857916 Ry

     The total energy is F=E-TS. E is the sum of the following terms:
     one-electron contribution =     -27.05512287 Ry
     hartree contribution      =      10.07826677 Ry
     xc contribution           =      -6.90919986 Ry
     ewald contribution        =      -6.21677917 Ry
     one-center paw contrib.   =       0.16425597 Ry

     convergence has been achieved in   5 iterations

     Forces acting on atoms (cartesian axes, Ry/au):

     atom    1 type  1   force =    -0.00000046   -0.00000046   -0.00000046
     atom    2 type  1   force =     0.00000046    0.00000046    0.00000046

     Total force =     0.000001     Total SCF correction =     0.000008
     SCF correction compared to forces is large: reduce conv_thr to get better values


     Computing stress (Cartesian axis) and pressure

          total   stress  (Ry/bohr**3)                   (kbar)     P=      -17.41
  -0.00011834  -0.00000000  -0.00000000          -17.41       -0.00       -0.00
  -0.00000000  -0.00011834  -0.00000000           -0.00      -17.41       -0.00
  -0.00000000  -0.00000000  -0.00011834           -0.00       -0.00      -17.41


     Writing all to output data dir ./tmp/Li_config_11.save/ :
     XML data file, charge density, pseudopotentials, collected wavefunctions

     init_run     :      0.56s CPU      0.60s WALL (       1 calls)
     electrons    :      4.72s CPU      5.13s WALL (       1 calls)
     forces       :      0.08s CPU      0.10s WALL (       1 calls)
     stress       :      0.45s CPU      0.48s WALL (       1 calls)

     Called by init_run:
     wfcinit      :      0.35s CPU      0.37s WALL (       1 calls)
     potinit      :      0.07s CPU      0.08s WALL (       1 calls)
     hinit0       :      0.08s CPU      0.09s WALL (       1 calls)

     Called by electrons:
     c_bands      :      3.43s CPU      3.75s WALL (       6 calls)
     sum_band     :      0.81s CPU      0.86s WALL (       6 calls)
     v_of_rho     :      0.24s CPU      0.25s WALL (       6 calls)
     newd         :      0.15s CPU      0.17s WALL (       6 calls)
     PAW_pot      :      0.13s CPU      0.13s WALL (       6 calls)
     mix_rho      :      0.02s CPU      0.03s WALL (       6 calls)

     Called by c_bands:
     init_us_2    :      0.12s CPU      0.14s WALL (     195 calls)
     cegterg      :      3.31s CPU      3.61s WALL (      78 calls)

     Called by *egterg:
     cdiaghg      :      0.01s CPU      0.01s WALL (     252 calls)
     h_psi        :      3.08s CPU      3.21s WALL (     278 calls)
     s_psi        :      0.09s CPU      0.12s WALL (     278 calls)
     g_psi        :      0.01s CPU      0.01s WALL (     187 calls)

     Called by h_psi:
     h_psi:calbec :      0.13s CPU      0.16s WALL (     278 calls)
     vloc_psi     :      2.84s CPU      2.89s WALL (     278 calls)
     add_vuspsi   :      0.10s CPU      0.14s WALL (     278 calls)

     General routines
     calbec       :      0.20s CPU      0.25s WALL (     421 calls)
     fft          :      0.13s CPU      0.13s WALL (      85 calls)
     ffts         :      0.02s CPU      0.02s WALL (      12 calls)
     fftw         :      2.99s CPU      3.01s WALL (    3500 calls)
     interpolate  :      0.02s CPU      0.02s WALL (       6 calls)

     Parallel routines

     PWSCF        :      5.85s CPU      6.35s WALL


   This run was terminated on:   1:14: 4  28Jan2025            

=------------------------------------------------------------------------------=
   JOB DONE.
=------------------------------------------------------------------------------=
Note: The following floating-point exceptions are signalling: IEEE_INVALID_FLAG IEEE_DIVIDE_BY_ZERO IEEE_OVERFLOW_FLAG IEEE_UNDERFLOW_FLAG
