[Mac:90512] shmem: mmap: an error occurred while determining whether or not /var/folders/hy/k_vp1md94sz2dr40dtrs6ln80000gn/T//ompi.Mac.501/jf.0/202440704/sm_segment.Mac.501.c110000.0 could be created.

     Program PWSCF v.7.3.1 starts on 28Jan2025 at  1:13:52 

     This program is part of the open-source Quantum ESPRESSO suite
     for quantum simulation of materials; please cite
         "P. Giannozzi et al., J. Phys.:Condens. Matter 21 395502 (2009);
         "P. Giannozzi et al., J. Phys.:Condens. Matter 29 465901 (2017);
         "P. Giannozzi et al., J. Chem. Phys. 152 154105 (2020);
          URL http://www.quantum-espresso.org", 
     in publications or presentations arising from this work. More details at
     http://www.quantum-espresso.org/quote

     Parallel version (MPI), running on     1 processors

     MPI processes distributed on     1 nodes
     0 MiB available memory on the printing compute node when the environment starts

     Reading input from Li_config_10.in

     Current dimensions of program PWSCF are:
     Max number of different atomic species (ntypx) = 10
     Max number of k-points (npk) =  40000
     Max angular momentum in pseudopotentials (lmaxx) =  4
     Found identity + ( -0.5000 -0.5000 -0.5000) symmetry
     This is a supercell, fractional translations are disabled

     Subspace diagonalization in iterative solution of the eigenvalue problem:
     a serial algorithm will be used


     G-vector sticks info
     --------------------
     sticks:   dense  smooth     PW     G-vecs:    dense   smooth      PW
     Sum        2617    2285    657               101673    82057   12533

     Using Slab Decomposition



     bravais-lattice index     =            1
     lattice parameter (alat)  =      10.5120  a.u.
     unit-cell volume          =    1161.5985 (a.u.)^3
     number of atoms/cell      =            2
     number of atomic types    =            1
     number of electrons       =         6.00
     number of Kohn-Sham states=            7
     kinetic-energy cutoff     =      65.0000  Ry
     charge density cutoff     =     300.0000  Ry
     scf convergence threshold =      1.0E-08
     mixing beta               =       0.7000
     number of iterations used =            8  plain     mixing
     Exchange-correlation= SLA  PW   PBX  PBC
                           (   1   4   3   4   0   0   0)

     celldm(1)=  10.512000  celldm(2)=   0.000000  celldm(3)=   0.000000
     celldm(4)=   0.000000  celldm(5)=   0.000000  celldm(6)=   0.000000

     crystal axes: (cart. coord. in units of alat)
               a(1) = (   1.000000   0.000000   0.000000 )  
               a(2) = (   0.000000   1.000000   0.000000 )  
               a(3) = (   0.000000   0.000000   1.000000 )  

     reciprocal axes: (cart. coord. in units 2 pi/alat)
               b(1) = (  1.000000  0.000000  0.000000 )  
               b(2) = (  0.000000  1.000000  0.000000 )  
               b(3) = (  0.000000  0.000000  1.000000 )  


     PseudoPot. # 1 for Li read from file:
     ../../../pseudopotentials/Li.pbe-s-kjpaw_psl.1.0.0.UPF
     MD5 check sum: d3662511b3860c829f7212fdb89d6128
     Pseudo is Projector augmented-wave, Zval =  3.0
     Generated using &quot;atomic&quot; code by A. Dal Corso  v.6.3
     Shape of augmentation charge: PSQ
     Using radial grid of 1017 points,  4 beta functions with: 
                l(1) =   0
                l(2) =   0
                l(3) =   1
                l(4) =   1
     Q(r) pseudized with 0 coefficients 


     atomic species   valence    mass     pseudopotential
     Li                3.00     6.94000     Li( 1.00)

      6 Sym. Ops. (no inversion) found



   Cartesian axes

     site n.     atom                  positions (alat units)
         1        Li     tau(   1) = (   0.0250000   0.0250000   0.0250000  )
         2        Li     tau(   2) = (   0.5250000   0.5250000   0.5250000  )

     number of k points=    13  Gaussian smearing, width (Ry)=  0.0100
                       cart. coord. in units 2pi/alat
        k(    1) = (   0.0000000   0.0000000   0.0000000), wk =   0.0312500
        k(    2) = (   0.0000000   0.0000000   0.2500000), wk =   0.1875000
        k(    3) = (   0.0000000   0.0000000  -0.5000000), wk =   0.0937500
        k(    4) = (   0.0000000   0.2500000   0.2500000), wk =   0.1875000
        k(    5) = (   0.0000000   0.2500000  -0.5000000), wk =   0.3750000
        k(    6) = (   0.0000000  -0.5000000  -0.5000000), wk =   0.0937500
        k(    7) = (   0.2500000   0.2500000   0.2500000), wk =   0.0625000
        k(    8) = (   0.2500000   0.2500000  -0.5000000), wk =   0.1875000
        k(    9) = (   0.2500000  -0.5000000  -0.5000000), wk =   0.1875000
        k(   10) = (  -0.5000000  -0.5000000  -0.5000000), wk =   0.0312500
        k(   11) = (  -0.2500000   0.0000000   0.2500000), wk =   0.1875000
        k(   12) = (   0.2500000  -0.2500000   0.2500000), wk =   0.1875000
        k(   13) = (   0.2500000  -0.2500000  -0.5000000), wk =   0.1875000

     Dense  grid:   101673 G-vectors     FFT dimensions: (  60,  60,  60)

     Smooth grid:    82057 G-vectors     FFT dimensions: (  54,  54,  54)

     Estimated max dynamical RAM per process >     152.81 MB

     Initial potential from superposition of free atoms

     starting charge       5.9908, renormalised to       6.0000
     Starting wfcs are   10 randomized atomic wfcs
     Checking if some PAW data can be deallocated... 

     total cpu time spent up to now is        0.5 secs

     Self-consistent Calculation

     iteration #  1     ecut=    65.00 Ry     beta= 0.70
     Davidson diagonalization with overlap
     ethr =  1.00E-02,  avg # of iterations =  2.0

     Threshold (ethr) on eigenvalues was too large:
     Diagonalizing with lowered threshold

     Davidson diagonalization with overlap
     ethr =  6.70E-05,  avg # of iterations =  2.1

     total cpu time spent up to now is        1.8 secs

     total energy              =     -29.94113878 Ry
     estimated scf accuracy    <       0.00373932 Ry

     iteration #  2     ecut=    65.00 Ry     beta= 0.70
     Davidson diagonalization with overlap
     ethr =  6.23E-05,  avg # of iterations =  1.0

     total cpu time spent up to now is        2.4 secs

     total energy              =     -29.94147465 Ry
     estimated scf accuracy    <       0.00040217 Ry

     iteration #  3     ecut=    65.00 Ry     beta= 0.70
     Davidson diagonalization with overlap
     ethr =  6.70E-06,  avg # of iterations =  2.7

     total cpu time spent up to now is        3.1 secs

     total energy              =     -29.94152440 Ry
     estimated scf accuracy    <       0.00000242 Ry

     iteration #  4     ecut=    65.00 Ry     beta= 0.70
     Davidson diagonalization with overlap
     ethr =  4.03E-08,  avg # of iterations =  3.2

     total cpu time spent up to now is        3.8 secs

     total energy              =     -29.94152608 Ry
     estimated scf accuracy    <       0.00000009 Ry

     iteration #  5     ecut=    65.00 Ry     beta= 0.70
     Davidson diagonalization with overlap
     ethr =  1.42E-09,  avg # of iterations =  2.4

     total cpu time spent up to now is        4.5 secs

     End of self-consistent calculation

          k = 0.0000 0.0000 0.0000 ( 10251 PWs)   bands (ev):

   -50.6296 -50.6296  -3.2788   0.6122   0.6122   0.6122   1.0331

          k = 0.0000 0.0000 0.2500 ( 10275 PWs)   bands (ev):

   -50.6296 -50.6296  -3.0028  -0.8291   0.8836   0.8836   1.4340

          k = 0.0000 0.0000-0.5000 ( 10274 PWs)   bands (ev):

   -50.6296 -50.6296  -2.1774  -2.1774   1.6659   1.6659   2.0081

          k = 0.0000 0.2500 0.2500 ( 10315 PWs)   bands (ev):

   -50.6296 -50.6296  -2.7268  -0.5616  -0.5556   1.1439   1.4949

          k = 0.0000 0.2500-0.5000 ( 10304 PWs)   bands (ev):

   -50.6296 -50.6296  -1.9029  -1.9029   0.2396   0.2396   1.8609

          k = 0.0000-0.5000-0.5000 ( 10280 PWs)   bands (ev):

   -50.6296 -50.6296  -1.1172  -1.1172  -1.0523  -1.0523   2.1344

          k = 0.2500 0.2500 0.2500 ( 10267 PWs)   bands (ev):

   -50.6296 -50.6296  -2.4508  -0.3310  -0.2669  -0.2669   1.4553

          k = 0.2500 0.2500-0.5000 ( 10278 PWs)   bands (ev):

   -50.6296 -50.6296  -1.6286  -1.6286   0.4230   0.4231   0.5874

          k = 0.2500-0.5000-0.5000 ( 10248 PWs)   bands (ev):

   -50.6296 -50.6296  -0.8253  -0.8253  -0.8024  -0.8024   1.1333

          k =-0.5000-0.5000-0.5000 ( 10144 PWs)   bands (ev):

   -50.6296 -50.6296  -0.1465  -0.1464   0.0428   0.0428   0.0428

          k =-0.2500 0.0000 0.2500 ( 10315 PWs)   bands (ev):

   -50.6296 -50.6296  -2.7268  -0.5616  -0.5556   1.1439   1.4949

          k = 0.2500-0.2500 0.2500 ( 10267 PWs)   bands (ev):

   -50.6296 -50.6296  -2.4508  -0.3310  -0.2669  -0.2669   1.4552

          k = 0.2500-0.2500-0.5000 ( 10278 PWs)   bands (ev):

   -50.6296 -50.6296  -1.6286  -1.6286   0.4230   0.4231   0.5874

     the Fermi energy is    -1.6786 ev

!    total energy              =     -29.94152612 Ry
     total all-electron energy =       -29.941549 Ry
     estimated scf accuracy    <          3.1E-09 Ry
     smearing contrib. (-TS)   =      -0.00198775 Ry
     internal energy E=F+TS    =     -29.93953837 Ry

     The total energy is F=E-TS. E is the sum of the following terms:
     one-electron contribution =     -27.03182991 Ry
     hartree contribution      =      10.06972819 Ry
     xc contribution           =      -6.91012765 Ry
     ewald contribution        =      -6.23156413 Ry
     one-center paw contrib.   =       0.16425512 Ry

     convergence has been achieved in   5 iterations

     Forces acting on atoms (cartesian axes, Ry/au):

     atom    1 type  1   force =    -0.00000153   -0.00000153   -0.00000153
     atom    2 type  1   force =     0.00000153    0.00000153    0.00000153

     Total force =     0.000004     Total SCF correction =     0.000008
     SCF correction compared to forces is large: reduce conv_thr to get better values


     Computing stress (Cartesian axis) and pressure

          total   stress  (Ry/bohr**3)                   (kbar)     P=      -17.55
  -0.00011932   0.00000000   0.00000000          -17.55        0.00        0.00
   0.00000000  -0.00011932   0.00000000            0.00      -17.55        0.00
   0.00000000   0.00000000  -0.00011932            0.00        0.00      -17.55


     Writing all to output data dir ./tmp/Li_config_10.save/ :
     XML data file, charge density, pseudopotentials, collected wavefunctions

     init_run     :      0.47s CPU      0.50s WALL (       1 calls)
     electrons    :      3.67s CPU      4.01s WALL (       1 calls)
     forces       :      0.08s CPU      0.10s WALL (       1 calls)
     stress       :      0.45s CPU      0.48s WALL (       1 calls)

     Called by init_run:
     wfcinit      :      0.26s CPU      0.28s WALL (       1 calls)
     potinit      :      0.07s CPU      0.08s WALL (       1 calls)
     hinit0       :      0.08s CPU      0.08s WALL (       1 calls)

     Called by electrons:
     c_bands      :      2.57s CPU      2.82s WALL (       6 calls)
     sum_band     :      0.63s CPU      0.67s WALL (       6 calls)
     v_of_rho     :      0.23s CPU      0.25s WALL (       6 calls)
     newd         :      0.14s CPU      0.17s WALL (       6 calls)
     PAW_pot      :      0.13s CPU      0.13s WALL (       6 calls)
     mix_rho      :      0.02s CPU      0.03s WALL (       6 calls)

     Called by c_bands:
     init_us_2    :      0.12s CPU      0.13s WALL (     195 calls)
     cegterg      :      2.46s CPU      2.69s WALL (      78 calls)

     Called by *egterg:
     cdiaghg      :      0.01s CPU      0.01s WALL (     238 calls)
     h_psi        :      2.19s CPU      2.29s WALL (     264 calls)
     s_psi        :      0.08s CPU      0.11s WALL (     264 calls)
     g_psi        :      0.01s CPU      0.01s WALL (     173 calls)

     Called by h_psi:
     h_psi:calbec :      0.12s CPU      0.15s WALL (     264 calls)
     vloc_psi     :      1.96s CPU      2.00s WALL (     264 calls)
     add_vuspsi   :      0.09s CPU      0.12s WALL (     264 calls)

     General routines
     calbec       :      0.19s CPU      0.24s WALL (     407 calls)
     fft          :      0.13s CPU      0.13s WALL (      85 calls)
     ffts         :      0.01s CPU      0.01s WALL (      12 calls)
     fftw         :      2.01s CPU      2.04s WALL (    3468 calls)
     interpolate  :      0.02s CPU      0.02s WALL (       6 calls)

     Parallel routines

     PWSCF        :      4.71s CPU      5.13s WALL


   This run was terminated on:   1:13:57  28Jan2025            

=------------------------------------------------------------------------------=
   JOB DONE.
=------------------------------------------------------------------------------=
Note: The following floating-point exceptions are signalling: IEEE_INVALID_FLAG IEEE_DIVIDE_BY_ZERO IEEE_OVERFLOW_FLAG IEEE_UNDERFLOW_FLAG
