[Mac:90521] shmem: mmap: an error occurred while determining whether or not /var/folders/hy/k_vp1md94sz2dr40dtrs6ln80000gn/T//ompi.Mac.501/jf.0/1209597952/sm_segment.Mac.501.48190000.0 could be created.

     Program PWSCF v.7.3.1 starts on 28Jan2025 at  1:14: 4 

     This program is part of the open-source Quantum ESPRESSO suite
     for quantum simulation of materials; please cite
         "P. Giannozzi et al., J. Phys.:Condens. Matter 21 395502 (2009);
         "P. Giannozzi et al., J. Phys.:Condens. Matter 29 465901 (2017);
         "P. Giannozzi et al., J. Chem. Phys. 152 154105 (2020);
          URL http://www.quantum-espresso.org", 
     in publications or presentations arising from this work. More details at
     http://www.quantum-espresso.org/quote

     Parallel version (MPI), running on     1 processors

     MPI processes distributed on     1 nodes
     0 MiB available memory on the printing compute node when the environment starts

     Reading input from Li_config_12.in

     Current dimensions of program PWSCF are:
     Max number of different atomic species (ntypx) = 10
     Max number of k-points (npk) =  40000
     Max angular momentum in pseudopotentials (lmaxx) =  4
     Found identity + (  0.5000  0.5000  0.5000) symmetry
     This is a supercell, fractional translations are disabled

     Subspace diagonalization in iterative solution of the eigenvalue problem:
     a serial algorithm will be used


     G-vector sticks info
     --------------------
     sticks:   dense  smooth     PW     G-vecs:    dense   smooth      PW
     Sum        2661    2313    657               103311    83599   12533

     Using Slab Decomposition



     bravais-lattice index     =            1
     lattice parameter (alat)  =      10.5620  a.u.
     unit-cell volume          =    1178.2528 (a.u.)^3
     number of atoms/cell      =            2
     number of atomic types    =            1
     number of electrons       =         6.00
     number of Kohn-Sham states=            7
     kinetic-energy cutoff     =      65.0000  Ry
     charge density cutoff     =     300.0000  Ry
     scf convergence threshold =      1.0E-08
     mixing beta               =       0.7000
     number of iterations used =            8  plain     mixing
     Exchange-correlation= SLA  PW   PBX  PBC
                           (   1   4   3   4   0   0   0)

     celldm(1)=  10.562000  celldm(2)=   0.000000  celldm(3)=   0.000000
     celldm(4)=   0.000000  celldm(5)=   0.000000  celldm(6)=   0.000000

     crystal axes: (cart. coord. in units of alat)
               a(1) = (   1.000000   0.000000   0.000000 )  
               a(2) = (   0.000000   1.000000   0.000000 )  
               a(3) = (   0.000000   0.000000   1.000000 )  

     reciprocal axes: (cart. coord. in units 2 pi/alat)
               b(1) = (  1.000000  0.000000  0.000000 )  
               b(2) = (  0.000000  1.000000  0.000000 )  
               b(3) = (  0.000000  0.000000  1.000000 )  


     PseudoPot. # 1 for Li read from file:
     ../../../pseudopotentials/Li.pbe-s-kjpaw_psl.1.0.0.UPF
     MD5 check sum: d3662511b3860c829f7212fdb89d6128
     Pseudo is Projector augmented-wave, Zval =  3.0
     Generated using &quot;atomic&quot; code by A. Dal Corso  v.6.3
     Shape of augmentation charge: PSQ
     Using radial grid of 1017 points,  4 beta functions with: 
                l(1) =   0
                l(2) =   0
                l(3) =   1
                l(4) =   1
     Q(r) pseudized with 0 coefficients 


     atomic species   valence    mass     pseudopotential
     Li                3.00     6.94000     Li( 1.00)

      6 Sym. Ops. (no inversion) found



   Cartesian axes

     site n.     atom                  positions (alat units)
         1        Li     tau(   1) = (   0.0750000   0.0750000   0.0750000  )
         2        Li     tau(   2) = (   0.5750000   0.5750000   0.5750000  )

     number of k points=    13  Gaussian smearing, width (Ry)=  0.0100
                       cart. coord. in units 2pi/alat
        k(    1) = (   0.0000000   0.0000000   0.0000000), wk =   0.0312500
        k(    2) = (   0.0000000   0.0000000   0.2500000), wk =   0.1875000
        k(    3) = (   0.0000000   0.0000000  -0.5000000), wk =   0.0937500
        k(    4) = (   0.0000000   0.2500000   0.2500000), wk =   0.1875000
        k(    5) = (   0.0000000   0.2500000  -0.5000000), wk =   0.3750000
        k(    6) = (   0.0000000  -0.5000000  -0.5000000), wk =   0.0937500
        k(    7) = (   0.2500000   0.2500000   0.2500000), wk =   0.0625000
        k(    8) = (   0.2500000   0.2500000  -0.5000000), wk =   0.1875000
        k(    9) = (   0.2500000  -0.5000000  -0.5000000), wk =   0.1875000
        k(   10) = (  -0.5000000  -0.5000000  -0.5000000), wk =   0.0312500
        k(   11) = (  -0.2500000   0.0000000   0.2500000), wk =   0.1875000
        k(   12) = (   0.2500000  -0.2500000   0.2500000), wk =   0.1875000
        k(   13) = (   0.2500000  -0.2500000  -0.5000000), wk =   0.1875000

     Dense  grid:   103311 G-vectors     FFT dimensions: (  60,  60,  60)

     Smooth grid:    83599 G-vectors     FFT dimensions: (  60,  60,  60)

     Estimated max dynamical RAM per process >     154.99 MB

     Initial potential from superposition of free atoms

     starting charge       5.9908, renormalised to       6.0000
     Starting wfcs are   10 randomized atomic wfcs
     Checking if some PAW data can be deallocated... 

     total cpu time spent up to now is        0.6 secs

     Self-consistent Calculation

     iteration #  1     ecut=    65.00 Ry     beta= 0.70
     Davidson diagonalization with overlap
     ethr =  1.00E-02,  avg # of iterations =  2.0

     Threshold (ethr) on eigenvalues was too large:
     Diagonalizing with lowered threshold

     Davidson diagonalization with overlap
     ethr =  6.84E-05,  avg # of iterations =  2.1

     total cpu time spent up to now is        2.3 secs

     total energy              =     -29.93922972 Ry
     estimated scf accuracy    <       0.00379624 Ry

     iteration #  2     ecut=    65.00 Ry     beta= 0.70
     Davidson diagonalization with overlap
     ethr =  6.33E-05,  avg # of iterations =  1.1

     total cpu time spent up to now is        3.0 secs

     total energy              =     -29.93957888 Ry
     estimated scf accuracy    <       0.00041275 Ry

     iteration #  3     ecut=    65.00 Ry     beta= 0.70
     Davidson diagonalization with overlap
     ethr =  6.88E-06,  avg # of iterations =  3.2

     total cpu time spent up to now is        4.0 secs

     total energy              =     -29.93962959 Ry
     estimated scf accuracy    <       0.00000236 Ry

     iteration #  4     ecut=    65.00 Ry     beta= 0.70
     Davidson diagonalization with overlap
     ethr =  3.93E-08,  avg # of iterations =  2.6

     total cpu time spent up to now is        4.9 secs

     total energy              =     -29.93963132 Ry
     estimated scf accuracy    <       0.00000008 Ry

     iteration #  5     ecut=    65.00 Ry     beta= 0.70
     Davidson diagonalization with overlap
     ethr =  1.28E-09,  avg # of iterations =  2.7

     total cpu time spent up to now is        5.8 secs

     End of self-consistent calculation

          k = 0.0000 0.0000 0.0000 ( 10395 PWs)   bands (ev):

   -50.6604 -50.6603  -3.2762   0.5823   0.5823   0.5823   0.9708

          k = 0.0000 0.0000 0.2500 ( 10431 PWs)   bands (ev):

   -50.6604 -50.6603  -3.0022  -0.8491   0.8508   0.8508   1.3759

          k = 0.0000 0.0000-0.5000 ( 10436 PWs)   bands (ev):

   -50.6604 -50.6604  -2.1845  -2.1845   1.6243   1.6243   1.9494

          k = 0.0000 0.2500 0.2500 ( 10435 PWs)   bands (ev):

   -50.6604 -50.6604  -2.7287  -0.5910  -0.5707   1.1081   1.4510

          k = 0.0000 0.2500-0.5000 ( 10440 PWs)   bands (ev):

   -50.6604 -50.6604  -1.9124  -1.9124   0.2089   0.2089   1.8165

          k = 0.0000-0.5000-0.5000 ( 10488 PWs)   bands (ev):

   -50.6604 -50.6604  -1.1264  -1.1264  -1.0784  -1.0784   2.0854

          k = 0.2500 0.2500 0.2500 ( 10399 PWs)   bands (ev):

   -50.6604 -50.6603  -2.4555  -0.3678  -0.2850  -0.2850   1.4054

          k = 0.2500 0.2500-0.5000 ( 10418 PWs)   bands (ev):

   -50.6604 -50.6604  -1.6407  -1.6407   0.3852   0.3852   0.5605

          k = 0.2500-0.5000-0.5000 ( 10404 PWs)   bands (ev):

   -50.6604 -50.6604  -0.8374  -0.8374  -0.8306  -0.8306   1.0923

          k =-0.5000-0.5000-0.5000 ( 10432 PWs)   bands (ev):

   -50.6604 -50.6604  -0.1923  -0.1922   0.0218   0.0218   0.0218

          k =-0.2500 0.0000 0.2500 ( 10435 PWs)   bands (ev):

   -50.6604 -50.6604  -2.7287  -0.5910  -0.5707   1.1082   1.4510

          k = 0.2500-0.2500 0.2500 ( 10399 PWs)   bands (ev):

   -50.6604 -50.6603  -2.4555  -0.3678  -0.2850  -0.2849   1.4055

          k = 0.2500-0.2500-0.5000 ( 10418 PWs)   bands (ev):

   -50.6604 -50.6604  -1.6407  -1.6407   0.3852   0.3852   0.5605

     the Fermi energy is    -1.6905 ev

!    total energy              =     -29.93963137 Ry
     total all-electron energy =       -29.939654 Ry
     estimated scf accuracy    <          2.8E-09 Ry
     smearing contrib. (-TS)   =      -0.00199808 Ry
     internal energy E=F+TS    =     -29.93763329 Ry

     The total energy is F=E-TS. E is the sum of the following terms:
     one-electron contribution =     -27.07832506 Ry
     hartree contribution      =      10.08680309 Ry
     xc contribution           =      -6.90830629 Ry
     ewald contribution        =      -6.20206420 Ry
     one-center paw contrib.   =       0.16425917 Ry

     convergence has been achieved in   5 iterations

     Forces acting on atoms (cartesian axes, Ry/au):

     atom    1 type  1   force =    -0.00000090   -0.00000090   -0.00000090
     atom    2 type  1   force =     0.00000090    0.00000090    0.00000090

     Total force =     0.000002     Total SCF correction =     0.000007
     SCF correction compared to forces is large: reduce conv_thr to get better values


     Computing stress (Cartesian axis) and pressure

          total   stress  (Ry/bohr**3)                   (kbar)     P=      -17.27
  -0.00011738   0.00000000   0.00000000          -17.27        0.00        0.00
   0.00000000  -0.00011738   0.00000000            0.00      -17.27        0.00
   0.00000000   0.00000000  -0.00011738            0.00        0.00      -17.27


     Writing all to output data dir ./tmp/Li_config_12.save/ :
     XML data file, charge density, pseudopotentials, collected wavefunctions

     init_run     :      0.57s CPU      0.61s WALL (       1 calls)
     electrons    :      4.83s CPU      5.15s WALL (       1 calls)
     forces       :      0.08s CPU      0.09s WALL (       1 calls)
     stress       :      0.45s CPU      0.49s WALL (       1 calls)

     Called by init_run:
     wfcinit      :      0.36s CPU      0.38s WALL (       1 calls)
     potinit      :      0.07s CPU      0.08s WALL (       1 calls)
     hinit0       :      0.08s CPU      0.08s WALL (       1 calls)

     Called by electrons:
     c_bands      :      3.53s CPU      3.77s WALL (       6 calls)
     sum_band     :      0.83s CPU      0.87s WALL (       6 calls)
     v_of_rho     :      0.24s CPU      0.25s WALL (       6 calls)
     newd         :      0.15s CPU      0.17s WALL (       6 calls)
     PAW_pot      :      0.13s CPU      0.13s WALL (       6 calls)
     mix_rho      :      0.02s CPU      0.03s WALL (       6 calls)

     Called by c_bands:
     init_us_2    :      0.12s CPU      0.14s WALL (     195 calls)
     cegterg      :      3.41s CPU      3.63s WALL (      78 calls)

     Called by *egterg:
     cdiaghg      :      0.01s CPU      0.01s WALL (     243 calls)
     h_psi        :      3.20s CPU      3.29s WALL (     269 calls)
     s_psi        :      0.09s CPU      0.12s WALL (     269 calls)
     g_psi        :      0.01s CPU      0.01s WALL (     178 calls)

     Called by h_psi:
     h_psi:calbec :      0.13s CPU      0.16s WALL (     269 calls)
     vloc_psi     :      2.96s CPU      2.98s WALL (     269 calls)
     add_vuspsi   :      0.10s CPU      0.13s WALL (     269 calls)

     General routines
     calbec       :      0.20s CPU      0.24s WALL (     412 calls)
     fft          :      0.13s CPU      0.13s WALL (      85 calls)
     ffts         :      0.02s CPU      0.02s WALL (      12 calls)
     fftw         :      3.13s CPU      3.14s WALL (    3476 calls)
     interpolate  :      0.02s CPU      0.02s WALL (       6 calls)

     Parallel routines

     PWSCF        :      5.98s CPU      6.38s WALL


   This run was terminated on:   1:14:10  28Jan2025            

=------------------------------------------------------------------------------=
   JOB DONE.
=------------------------------------------------------------------------------=
Note: The following floating-point exceptions are signalling: IEEE_INVALID_FLAG IEEE_DIVIDE_BY_ZERO IEEE_OVERFLOW_FLAG IEEE_UNDERFLOW_FLAG
