[Mac:90542] shmem: mmap: an error occurred while determining whether or not /var/folders/hy/k_vp1md94sz2dr40dtrs6ln80000gn/T//ompi.Mac.501/jf.0/3190947840/sm_segment.Mac.501.be320000.0 could be created.

     Program PWSCF v.7.3.1 starts on 28Jan2025 at  1:14:24 

     This program is part of the open-source Quantum ESPRESSO suite
     for quantum simulation of materials; please cite
         "P. Giannozzi et al., J. Phys.:Condens. Matter 21 395502 (2009);
         "P. Giannozzi et al., J. Phys.:Condens. Matter 29 465901 (2017);
         "P. Giannozzi et al., J. Chem. Phys. 152 154105 (2020);
          URL http://www.quantum-espresso.org", 
     in publications or presentations arising from this work. More details at
     http://www.quantum-espresso.org/quote

     Parallel version (MPI), running on     1 processors

     MPI processes distributed on     1 nodes
     0 MiB available memory on the printing compute node when the environment starts

     Reading input from Li_config_15.in

     Current dimensions of program PWSCF are:
     Max number of different atomic species (ntypx) = 10
     Max number of k-points (npk) =  40000
     Max angular momentum in pseudopotentials (lmaxx) =  4
     Found identity + ( -0.5000 -0.5000 -0.5000) symmetry
     This is a supercell, fractional translations are disabled

     Subspace diagonalization in iterative solution of the eigenvalue problem:
     a serial algorithm will be used


     G-vector sticks info
     --------------------
     sticks:   dense  smooth     PW     G-vecs:    dense   smooth      PW
     Sum        2709    2353    665               105759    85159   12893

     Using Slab Decomposition



     bravais-lattice index     =            1
     lattice parameter (alat)  =      10.6370  a.u.
     unit-cell volume          =    1203.5315 (a.u.)^3
     number of atoms/cell      =            2
     number of atomic types    =            1
     number of electrons       =         6.00
     number of Kohn-Sham states=            7
     kinetic-energy cutoff     =      65.0000  Ry
     charge density cutoff     =     300.0000  Ry
     scf convergence threshold =      1.0E-08
     mixing beta               =       0.7000
     number of iterations used =            8  plain     mixing
     Exchange-correlation= SLA  PW   PBX  PBC
                           (   1   4   3   4   0   0   0)

     celldm(1)=  10.637000  celldm(2)=   0.000000  celldm(3)=   0.000000
     celldm(4)=   0.000000  celldm(5)=   0.000000  celldm(6)=   0.000000

     crystal axes: (cart. coord. in units of alat)
               a(1) = (   1.000000   0.000000   0.000000 )  
               a(2) = (   0.000000   1.000000   0.000000 )  
               a(3) = (   0.000000   0.000000   1.000000 )  

     reciprocal axes: (cart. coord. in units 2 pi/alat)
               b(1) = (  1.000000  0.000000  0.000000 )  
               b(2) = (  0.000000  1.000000  0.000000 )  
               b(3) = (  0.000000  0.000000  1.000000 )  


     PseudoPot. # 1 for Li read from file:
     ../../../pseudopotentials/Li.pbe-s-kjpaw_psl.1.0.0.UPF
     MD5 check sum: d3662511b3860c829f7212fdb89d6128
     Pseudo is Projector augmented-wave, Zval =  3.0
     Generated using &quot;atomic&quot; code by A. Dal Corso  v.6.3
     Shape of augmentation charge: PSQ
     Using radial grid of 1017 points,  4 beta functions with: 
                l(1) =   0
                l(2) =   0
                l(3) =   1
                l(4) =   1
     Q(r) pseudized with 0 coefficients 


     atomic species   valence    mass     pseudopotential
     Li                3.00     6.94000     Li( 1.00)

      6 Sym. Ops. (no inversion) found



   Cartesian axes

     site n.     atom                  positions (alat units)
         1        Li     tau(   1) = (   0.1500000   0.1500000   0.1500000  )
         2        Li     tau(   2) = (   0.6500000   0.6500000   0.6500000  )

     number of k points=    13  Gaussian smearing, width (Ry)=  0.0100
                       cart. coord. in units 2pi/alat
        k(    1) = (   0.0000000   0.0000000   0.0000000), wk =   0.0312500
        k(    2) = (   0.0000000   0.0000000   0.2500000), wk =   0.1875000
        k(    3) = (   0.0000000   0.0000000  -0.5000000), wk =   0.0937500
        k(    4) = (   0.0000000   0.2500000   0.2500000), wk =   0.1875000
        k(    5) = (   0.0000000   0.2500000  -0.5000000), wk =   0.3750000
        k(    6) = (   0.0000000  -0.5000000  -0.5000000), wk =   0.0937500
        k(    7) = (   0.2500000   0.2500000   0.2500000), wk =   0.0625000
        k(    8) = (   0.2500000   0.2500000  -0.5000000), wk =   0.1875000
        k(    9) = (   0.2500000  -0.5000000  -0.5000000), wk =   0.1875000
        k(   10) = (  -0.5000000  -0.5000000  -0.5000000), wk =   0.0312500
        k(   11) = (  -0.2500000   0.0000000   0.2500000), wk =   0.1875000
        k(   12) = (   0.2500000  -0.2500000   0.2500000), wk =   0.1875000
        k(   13) = (   0.2500000  -0.2500000  -0.5000000), wk =   0.1875000

     Dense  grid:   105759 G-vectors     FFT dimensions: (  60,  60,  60)

     Smooth grid:    85159 G-vectors     FFT dimensions: (  60,  60,  60)

     Estimated max dynamical RAM per process >     158.26 MB

     Initial potential from superposition of free atoms

     starting charge       5.9908, renormalised to       6.0000
     Starting wfcs are   10 randomized atomic wfcs
     Checking if some PAW data can be deallocated... 

     total cpu time spent up to now is        0.6 secs

     Self-consistent Calculation

     iteration #  1     ecut=    65.00 Ry     beta= 0.70
     Davidson diagonalization with overlap
     ethr =  1.00E-02,  avg # of iterations =  2.0

     Threshold (ethr) on eigenvalues was too large:
     Diagonalizing with lowered threshold

     Davidson diagonalization with overlap
     ethr =  6.95E-05,  avg # of iterations =  2.1

     total cpu time spent up to now is        2.2 secs

     total energy              =     -29.93637452 Ry
     estimated scf accuracy    <       0.00387039 Ry

     iteration #  2     ecut=    65.00 Ry     beta= 0.70
     Davidson diagonalization with overlap
     ethr =  6.45E-05,  avg # of iterations =  1.1

     total cpu time spent up to now is        2.9 secs

     total energy              =     -29.93673809 Ry
     estimated scf accuracy    <       0.00042546 Ry

     iteration #  3     ecut=    65.00 Ry     beta= 0.70
     Davidson diagonalization with overlap
     ethr =  7.09E-06,  avg # of iterations =  3.3

     total cpu time spent up to now is        3.8 secs

     total energy              =     -29.93679260 Ry
     estimated scf accuracy    <       0.00000249 Ry

     iteration #  4     ecut=    65.00 Ry     beta= 0.70
     Davidson diagonalization with overlap
     ethr =  4.14E-08,  avg # of iterations =  3.1

     total cpu time spent up to now is        4.8 secs

     total energy              =     -29.93679437 Ry
     estimated scf accuracy    <       0.00000007 Ry

     iteration #  5     ecut=    65.00 Ry     beta= 0.70
     Davidson diagonalization with overlap
     ethr =  1.21E-09,  avg # of iterations =  2.7

     total cpu time spent up to now is        5.7 secs

     End of self-consistent calculation

          k = 0.0000 0.0000 0.0000 ( 10779 PWs)   bands (ev):

   -50.7056 -50.7055  -3.2720   0.5383   0.5384   0.5384   0.8742

          k = 0.0000 0.0000 0.2500 ( 10667 PWs)   bands (ev):

   -50.7056 -50.7055  -3.0011  -0.8787   0.8025   0.8025   1.2907

          k = 0.0000 0.0000-0.5000 ( 10676 PWs)   bands (ev):

   -50.7056 -50.7055  -2.1948  -2.1948   1.5631   1.5631   1.5631

          k = 0.0000 0.2500 0.2500 ( 10655 PWs)   bands (ev):

   -50.7056 -50.7055  -2.7313  -0.6350  -0.5928   1.0555   1.3862

          k = 0.0000 0.2500-0.5000 ( 10602 PWs)   bands (ev):

   -50.7056 -50.7055  -1.9262  -1.9262   0.1640   0.1640   1.7513

          k = 0.0000-0.5000-0.5000 ( 10600 PWs)   bands (ev):

   -50.7056 -50.7055  -1.1399  -1.1399  -1.1157  -1.1156   2.0133

          k = 0.2500 0.2500 0.2500 ( 10663 PWs)   bands (ev):

   -50.7056 -50.7055  -2.4619  -0.4239  -0.3114  -0.3114   1.3328

          k = 0.2500 0.2500-0.5000 ( 10666 PWs)   bands (ev):

   -50.7056 -50.7055  -1.6587  -1.6587   0.3295   0.3296   0.5210

          k = 0.2500-0.5000-0.5000 ( 10640 PWs)   bands (ev):

   -50.7056 -50.7055  -0.8723  -0.8723  -0.8551  -0.8551   1.0326

          k =-0.5000-0.5000-0.5000 ( 10552 PWs)   bands (ev):

   -50.7056 -50.7055  -0.2567  -0.2566  -0.0089  -0.0089  -0.0089

          k =-0.2500 0.0000 0.2500 ( 10655 PWs)   bands (ev):

   -50.7056 -50.7055  -2.7313  -0.6350  -0.5928   1.0555   1.3862

          k = 0.2500-0.2500 0.2500 ( 10663 PWs)   bands (ev):

   -50.7056 -50.7055  -2.4619  -0.4239  -0.3114  -0.3114   1.3328

          k = 0.2500-0.2500-0.5000 ( 10666 PWs)   bands (ev):

   -50.7056 -50.7055  -1.6587  -1.6587   0.3295   0.3296   0.5210

     the Fermi energy is    -1.7082 ev

!    total energy              =     -29.93679440 Ry
     total all-electron energy =       -29.936817 Ry
     estimated scf accuracy    <          3.6E-09 Ry
     smearing contrib. (-TS)   =      -0.00201553 Ry
     internal energy E=F+TS    =     -29.93477888 Ry

     The total energy is F=E-TS. E is the sum of the following terms:
     one-electron contribution =     -27.14730783 Ry
     hartree contribution      =      10.11219657 Ry
     xc contribution           =      -6.90559704 Ry
     ewald contribution        =      -6.15833431 Ry
     one-center paw contrib.   =       0.16426374 Ry

     convergence has been achieved in   5 iterations

     Forces acting on atoms (cartesian axes, Ry/au):

     atom    1 type  1   force =    -0.00000072   -0.00000072   -0.00000072
     atom    2 type  1   force =     0.00000072    0.00000072    0.00000072

     Total force =     0.000002     Total SCF correction =     0.000008
     SCF correction compared to forces is large: reduce conv_thr to get better values


     Computing stress (Cartesian axis) and pressure

          total   stress  (Ry/bohr**3)                   (kbar)     P=      -16.85
  -0.00011454   0.00000000   0.00000000          -16.85        0.00        0.00
   0.00000000  -0.00011454   0.00000000            0.00      -16.85        0.00
   0.00000000   0.00000000  -0.00011454            0.00        0.00      -16.85


     Writing all to output data dir ./tmp/Li_config_15.save/ :
     XML data file, charge density, pseudopotentials, collected wavefunctions

     init_run     :      0.55s CPU      0.58s WALL (       1 calls)
     electrons    :      4.72s CPU      5.05s WALL (       1 calls)
     forces       :      0.08s CPU      0.10s WALL (       1 calls)
     stress       :      0.47s CPU      0.50s WALL (       1 calls)

     Called by init_run:
     wfcinit      :      0.34s CPU      0.36s WALL (       1 calls)
     potinit      :      0.07s CPU      0.08s WALL (       1 calls)
     hinit0       :      0.08s CPU      0.08s WALL (       1 calls)

     Called by electrons:
     c_bands      :      3.43s CPU      3.65s WALL (       6 calls)
     sum_band     :      0.81s CPU      0.85s WALL (       6 calls)
     v_of_rho     :      0.24s CPU      0.28s WALL (       6 calls)
     newd         :      0.15s CPU      0.18s WALL (       6 calls)
     PAW_pot      :      0.13s CPU      0.13s WALL (       6 calls)
     mix_rho      :      0.02s CPU      0.03s WALL (       6 calls)

     Called by c_bands:
     init_us_2    :      0.12s CPU      0.13s WALL (     195 calls)
     cegterg      :      3.31s CPU      3.52s WALL (      78 calls)

     Called by *egterg:
     cdiaghg      :      0.01s CPU      0.01s WALL (     250 calls)
     h_psi        :      3.10s CPU      3.18s WALL (     276 calls)
     s_psi        :      0.09s CPU      0.12s WALL (     276 calls)
     g_psi        :      0.01s CPU      0.01s WALL (     185 calls)

     Called by h_psi:
     h_psi:calbec :      0.12s CPU      0.14s WALL (     276 calls)
     vloc_psi     :      2.88s CPU      2.90s WALL (     276 calls)
     add_vuspsi   :      0.09s CPU      0.12s WALL (     276 calls)

     General routines
     calbec       :      0.18s CPU      0.23s WALL (     419 calls)
     fft          :      0.13s CPU      0.14s WALL (      85 calls)
     ffts         :      0.02s CPU      0.02s WALL (      12 calls)
     fftw         :      3.04s CPU      3.04s WALL (    3494 calls)
     interpolate  :      0.02s CPU      0.02s WALL (       6 calls)

     Parallel routines

     PWSCF        :      5.86s CPU      6.27s WALL


   This run was terminated on:   1:14:30  28Jan2025            

=------------------------------------------------------------------------------=
   JOB DONE.
=------------------------------------------------------------------------------=
Note: The following floating-point exceptions are signalling: IEEE_INVALID_FLAG IEEE_DIVIDE_BY_ZERO IEEE_OVERFLOW_FLAG IEEE_UNDERFLOW_FLAG
