[Mac:90709] shmem: mmap: an error occurred while determining whether or not /var/folders/hy/k_vp1md94sz2dr40dtrs6ln80000gn/T//ompi.Mac.501/jf.0/2967666688/sm_segment.Mac.501.b0e30000.0 could be created.

     Program PWSCF v.7.3.1 starts on 28Jan2025 at  1:20:11 

     This program is part of the open-source Quantum ESPRESSO suite
     for quantum simulation of materials; please cite
         "P. Giannozzi et al., J. Phys.:Condens. Matter 21 395502 (2009);
         "P. Giannozzi et al., J. Phys.:Condens. Matter 29 465901 (2017);
         "P. Giannozzi et al., J. Chem. Phys. 152 154105 (2020);
          URL http://www.quantum-espresso.org", 
     in publications or presentations arising from this work. More details at
     http://www.quantum-espresso.org/quote

     Parallel version (MPI), running on     1 processors

     MPI processes distributed on     1 nodes
     0 MiB available memory on the printing compute node when the environment starts

     Reading input from Li_config_3.in

     Current dimensions of program PWSCF are:
     Max number of different atomic species (ntypx) = 10
     Max number of k-points (npk) =  40000
     Max angular momentum in pseudopotentials (lmaxx) =  4

     Subspace diagonalization in iterative solution of the eigenvalue problem:
     a serial algorithm will be used


     G-vector sticks info
     --------------------
     sticks:   dense  smooth     PW     G-vecs:    dense   smooth      PW
     Sum        2377    2061    593                86791    69983   10779

     Using Slab Decomposition



     bravais-lattice index     =            1
     lattice parameter (alat)  =       9.9627  a.u.
     unit-cell volume          =     988.8368 (a.u.)^3
     number of atoms/cell      =            2
     number of atomic types    =            1
     number of electrons       =         6.00
     number of Kohn-Sham states=            7
     kinetic-energy cutoff     =      65.0000  Ry
     charge density cutoff     =     300.0000  Ry
     scf convergence threshold =      1.0E-08
     mixing beta               =       0.7000
     number of iterations used =            8  plain     mixing
     Exchange-correlation= SLA  PW   PBX  PBC
                           (   1   4   3   4   0   0   0)

     celldm(1)=   9.962650  celldm(2)=   0.000000  celldm(3)=   0.000000
     celldm(4)=   0.000000  celldm(5)=   0.000000  celldm(6)=   0.000000

     crystal axes: (cart. coord. in units of alat)
               a(1) = (   1.000000   0.000000   0.000000 )  
               a(2) = (   0.000000   1.000000   0.000000 )  
               a(3) = (   0.000000   0.000000   1.000000 )  

     reciprocal axes: (cart. coord. in units 2 pi/alat)
               b(1) = (  1.000000  0.000000  0.000000 )  
               b(2) = (  0.000000  1.000000  0.000000 )  
               b(3) = (  0.000000  0.000000  1.000000 )  


     PseudoPot. # 1 for Li read from file:
     ../../../pseudopotentials/Li.pbe-s-kjpaw_psl.1.0.0.UPF
     MD5 check sum: d3662511b3860c829f7212fdb89d6128
     Pseudo is Projector augmented-wave, Zval =  3.0
     Generated using &quot;atomic&quot; code by A. Dal Corso  v.6.3
     Shape of augmentation charge: PSQ
     Using radial grid of 1017 points,  4 beta functions with: 
                l(1) =   0
                l(2) =   0
                l(3) =   1
                l(4) =   1
     Q(r) pseudized with 0 coefficients 


     atomic species   valence    mass     pseudopotential
     Li                3.00     6.94000     Li( 1.00)

      6 Sym. Ops. (no inversion) found



   Cartesian axes

     site n.     atom                  positions (alat units)
         1        Li     tau(   1) = (   0.0000000   0.0000000   0.0000000  )
         2        Li     tau(   2) = (   0.4750000   0.4750000   0.4750000  )

     number of k points=    13  Gaussian smearing, width (Ry)=  0.0100
                       cart. coord. in units 2pi/alat
        k(    1) = (   0.0000000   0.0000000   0.0000000), wk =   0.0312500
        k(    2) = (   0.0000000   0.0000000   0.2500000), wk =   0.1875000
        k(    3) = (   0.0000000   0.0000000  -0.5000000), wk =   0.0937500
        k(    4) = (   0.0000000   0.2500000   0.2500000), wk =   0.1875000
        k(    5) = (   0.0000000   0.2500000  -0.5000000), wk =   0.3750000
        k(    6) = (   0.0000000  -0.5000000  -0.5000000), wk =   0.0937500
        k(    7) = (   0.2500000   0.2500000   0.2500000), wk =   0.0625000
        k(    8) = (   0.2500000   0.2500000  -0.5000000), wk =   0.1875000
        k(    9) = (   0.2500000  -0.5000000  -0.5000000), wk =   0.1875000
        k(   10) = (  -0.5000000  -0.5000000  -0.5000000), wk =   0.0312500
        k(   11) = (  -0.2500000   0.0000000   0.2500000), wk =   0.1875000
        k(   12) = (   0.2500000  -0.2500000   0.2500000), wk =   0.1875000
        k(   13) = (   0.2500000  -0.2500000  -0.5000000), wk =   0.1875000

     Dense  grid:    86791 G-vectors     FFT dimensions: (  60,  60,  60)

     Smooth grid:    69983 G-vectors     FFT dimensions: (  54,  54,  54)

     Estimated max dynamical RAM per process >     132.63 MB

     Initial potential from superposition of free atoms

     starting charge       5.9908, renormalised to       6.0000
     Starting wfcs are   10 randomized atomic wfcs
     Checking if some PAW data can be deallocated... 

     total cpu time spent up to now is        0.5 secs

     Self-consistent Calculation

     iteration #  1     ecut=    65.00 Ry     beta= 0.70
     Davidson diagonalization with overlap
     ethr =  1.00E-02,  avg # of iterations =  2.0

     Threshold (ethr) on eigenvalues was too large:
     Diagonalizing with lowered threshold

     Davidson diagonalization with overlap
     ethr =  5.83E-05,  avg # of iterations =  3.0

     total cpu time spent up to now is        1.7 secs

     total energy              =     -29.96310492 Ry
     estimated scf accuracy    <       0.00326021 Ry

     iteration #  2     ecut=    65.00 Ry     beta= 0.70
     Davidson diagonalization with overlap
     ethr =  5.43E-05,  avg # of iterations =  1.1

     total cpu time spent up to now is        2.2 secs

     total energy              =     -29.96336064 Ry
     estimated scf accuracy    <       0.00030299 Ry

     iteration #  3     ecut=    65.00 Ry     beta= 0.70
     Davidson diagonalization with overlap
     ethr =  5.05E-06,  avg # of iterations =  3.3

     total cpu time spent up to now is        2.8 secs

     total energy              =     -29.96339411 Ry
     estimated scf accuracy    <       0.00000298 Ry

     iteration #  4     ecut=    65.00 Ry     beta= 0.70
     Davidson diagonalization with overlap
     ethr =  4.97E-08,  avg # of iterations =  2.9

     total cpu time spent up to now is        3.6 secs

     total energy              =     -29.96339572 Ry
     estimated scf accuracy    <       0.00000013 Ry

     iteration #  5     ecut=    65.00 Ry     beta= 0.70
     Davidson diagonalization with overlap
     ethr =  2.16E-09,  avg # of iterations =  2.0

     total cpu time spent up to now is        4.2 secs

     End of self-consistent calculation

          k = 0.0000 0.0000 0.0000 (  8733 PWs)   bands (ev):

   -50.2452 -50.2451  -3.3089   0.9745   0.9838   0.9838   1.8187

          k = 0.0000 0.0000 0.2500 (  8746 PWs)   bands (ev):

   -50.2452 -50.2451  -3.0034  -0.5902   1.2816   1.2885   2.1369

          k = 0.0000 0.0000-0.5000 (  8778 PWs)   bands (ev):

   -50.2452 -50.2451  -2.1317  -2.0460   2.0625   2.0810   2.2496

          k = 0.0000 0.2500 0.2500 (  8750 PWs)   bands (ev):

   -50.2452 -50.2451  -2.6984  -0.3672  -0.2053   1.5780   2.0169

          k = 0.0000 0.2500-0.5000 (  8748 PWs)   bands (ev):

   -50.2452 -50.2451  -1.8306  -1.7418   0.5583   0.6735   2.3140

          k = 0.0000-0.5000-0.5000 (  8724 PWs)   bands (ev):

   -50.2452 -50.2451  -1.0323  -0.9995  -0.7384  -0.7029   2.7176

          k = 0.2500 0.2500 0.2500 (  8742 PWs)   bands (ev):

   -50.2452 -50.2451  -2.3937  -0.0444  -0.0444   0.1288   2.0465

          k = 0.2500 0.2500-0.5000 (  8778 PWs)   bands (ev):

   -50.2452 -50.2451  -1.5290  -1.4368   0.8305   0.8597   0.9208

          k = 0.2500-0.5000-0.5000 (  8772 PWs)   bands (ev):

   -50.2452 -50.2451  -0.7155  -0.6736  -0.4656  -0.4212   1.5930

          k =-0.5000-0.5000-0.5000 (  8744 PWs)   bands (ev):

   -50.2452 -50.2451   0.1239   0.2152   0.2160   0.3858   0.4067

          k =-0.2500 0.0000 0.2500 (  8750 PWs)   bands (ev):

   -50.2452 -50.2451  -2.6983  -0.3688  -0.2052   1.5775   2.0335

          k = 0.2500-0.2500 0.2500 (  8742 PWs)   bands (ev):

   -50.2452 -50.2451  -2.3934  -0.0472  -0.0444   0.1284   2.0619

          k = 0.2500-0.2500-0.5000 (  8778 PWs)   bands (ev):

   -50.2452 -50.2451  -1.5288  -1.4366   0.8088   0.8477   0.9433

     the Fermi energy is    -1.5390 ev

!    total energy              =     -29.96339575 Ry
     total all-electron energy =       -29.963418 Ry
     estimated scf accuracy    <          8.8E-09 Ry
     smearing contrib. (-TS)   =      -0.00177858 Ry
     internal energy E=F+TS    =     -29.96161717 Ry

     The total energy is F=E-TS. E is the sum of the following terms:
     one-electron contribution =     -26.51102079 Ry
     hartree contribution      =       9.88640372 Ry
     xc contribution           =      -6.93319057 Ry
     ewald contribution        =      -6.56805700 Ry
     one-center paw contrib.   =       0.16424747 Ry

     convergence has been achieved in   5 iterations

     Forces acting on atoms (cartesian axes, Ry/au):

     atom    1 type  1   force =     0.00061093    0.00061093    0.00061093
     atom    2 type  1   force =    -0.00061093   -0.00061093   -0.00061093

     Total force =     0.001496     Total SCF correction =     0.000010


     Computing stress (Cartesian axis) and pressure

          total   stress  (Ry/bohr**3)                   (kbar)     P=      -20.73
  -0.00014094   0.00000001   0.00000001          -20.73        0.00        0.00
   0.00000001  -0.00014094   0.00000001            0.00      -20.73        0.00
   0.00000001   0.00000001  -0.00014094            0.00        0.00      -20.73


     Writing all to output data dir ./tmp/Li_config_3.save/ :
     XML data file, charge density, pseudopotentials, collected wavefunctions

     init_run     :      0.44s CPU      0.46s WALL (       1 calls)
     electrons    :      3.44s CPU      3.71s WALL (       1 calls)
     forces       :      0.07s CPU      0.08s WALL (       1 calls)
     stress       :      0.38s CPU      0.40s WALL (       1 calls)

     Called by init_run:
     wfcinit      :      0.24s CPU      0.25s WALL (       1 calls)
     potinit      :      0.07s CPU      0.08s WALL (       1 calls)
     hinit0       :      0.08s CPU      0.08s WALL (       1 calls)

     Called by electrons:
     c_bands      :      2.38s CPU      2.53s WALL (       6 calls)
     sum_band     :      0.60s CPU      0.68s WALL (       6 calls)
     v_of_rho     :      0.23s CPU      0.25s WALL (       6 calls)
     newd         :      0.13s CPU      0.15s WALL (       6 calls)
     PAW_pot      :      0.13s CPU      0.13s WALL (       6 calls)
     mix_rho      :      0.02s CPU      0.03s WALL (       6 calls)

     Called by c_bands:
     init_us_2    :      0.10s CPU      0.11s WALL (     195 calls)
     cegterg      :      2.29s CPU      2.42s WALL (      78 calls)

     Called by *egterg:
     cdiaghg      :      0.01s CPU      0.01s WALL (     251 calls)
     h_psi        :      2.09s CPU      2.14s WALL (     277 calls)
     s_psi        :      0.06s CPU      0.08s WALL (     277 calls)
     g_psi        :      0.01s CPU      0.01s WALL (     186 calls)

     Called by h_psi:
     h_psi:calbec :      0.09s CPU      0.11s WALL (     277 calls)
     vloc_psi     :      1.92s CPU      1.94s WALL (     277 calls)
     add_vuspsi   :      0.06s CPU      0.08s WALL (     277 calls)

     General routines
     calbec       :      0.15s CPU      0.18s WALL (     420 calls)
     fft          :      0.13s CPU      0.13s WALL (      85 calls)
     ffts         :      0.01s CPU      0.01s WALL (      12 calls)
     fftw         :      1.98s CPU      2.00s WALL (    3522 calls)
     interpolate  :      0.02s CPU      0.02s WALL (       6 calls)

     Parallel routines

     PWSCF        :      4.36s CPU      4.69s WALL


   This run was terminated on:   1:20:16  28Jan2025            

=------------------------------------------------------------------------------=
   JOB DONE.
=------------------------------------------------------------------------------=
Note: The following floating-point exceptions are signalling: IEEE_INVALID_FLAG IEEE_DIVIDE_BY_ZERO IEEE_OVERFLOW_FLAG IEEE_UNDERFLOW_FLAG
