
     Program PWSCF v.7.3.1 starts on 25Mar2025 at 13: 5:46 

     This program is part of the open-source Quantum ESPRESSO suite
     for quantum simulation of materials; please cite
         "P. Giannozzi et al., J. Phys.:Condens. Matter 21 395502 (2009);
         "P. Giannozzi et al., J. Phys.:Condens. Matter 29 465901 (2017);
         "P. Giannozzi et al., J. Chem. Phys. 152 154105 (2020);
          URL http://www.quantum-espresso.org", 
     in publications or presentations arising from this work. More details at
     http://www.quantum-espresso.org/quote

     Parallel version (MPI), running on     1 processors

     MPI processes distributed on     1 nodes
     0 MiB available memory on the printing compute node when the environment starts

     Reading input from Li_config_3.in

     Current dimensions of program PWSCF are:
     Max number of different atomic species (ntypx) = 10
     Max number of k-points (npk) =  40000
     Max angular momentum in pseudopotentials (lmaxx) =  4

     Subspace diagonalization in iterative solution of the eigenvalue problem:
     a serial algorithm will be used


     G-vector sticks info
     --------------------
     sticks:   dense  smooth     PW     G-vecs:    dense   smooth      PW
     Sum         713     571    173                12113     8685    1505

     Using Slab Decomposition



     bravais-lattice index     =            3
     lattice parameter (alat)  =       6.5283  a.u.
     unit-cell volume          =     139.1115 (a.u.)^3
     number of atoms/cell      =            2
     number of atomic types    =            1
     number of electrons       =         6.00
     number of Kohn-Sham states=            7
     kinetic-energy cutoff     =      60.0000  Ry
     charge density cutoff     =     300.0000  Ry
     scf convergence threshold =      1.0E-08
     mixing beta               =       0.7000
     number of iterations used =            8  plain     mixing
     Exchange-correlation= SLA  PW   PBX  PBC
                           (   1   4   3   4   0   0   0)

     celldm(1)=   6.528263  celldm(2)=   0.000000  celldm(3)=   0.000000
     celldm(4)=   0.000000  celldm(5)=   0.000000  celldm(6)=   0.000000

     crystal axes: (cart. coord. in units of alat)
               a(1) = (   0.500000   0.500000   0.500000 )  
               a(2) = (  -0.500000   0.500000   0.500000 )  
               a(3) = (  -0.500000  -0.500000   0.500000 )  

     reciprocal axes: (cart. coord. in units 2 pi/alat)
               b(1) = (  1.000000  0.000000  1.000000 )  
               b(2) = ( -1.000000  1.000000  0.000000 )  
               b(3) = (  0.000000 -1.000000  1.000000 )  


     PseudoPot. # 1 for Li read from file:
     ../pseudopotentials/Li.pbe-s-kjpaw_psl.1.0.0.UPF
     MD5 check sum: d3662511b3860c829f7212fdb89d6128
     Pseudo is Projector augmented-wave, Zval =  3.0
     Generated using &quot;atomic&quot; code by A. Dal Corso  v.6.3
     Shape of augmentation charge: PSQ
     Using radial grid of 1017 points,  4 beta functions with: 
                l(1) =   0
                l(2) =   0
                l(3) =   1
                l(4) =   1
     Q(r) pseudized with 0 coefficients 


     atomic species   valence    mass     pseudopotential
     Li                3.00     6.94000     Li( 1.00)

     No symmetry found



   Cartesian axes

     site n.     atom                  positions (alat units)
         1        Li     tau(   1) = (   0.0000310  -0.0011570   0.0011150  )
         2        Li     tau(   2) = (  -0.2509060   0.2461270   0.7483620  )

     number of k points=   260  Gaussian smearing, width (Ry)=  0.0100

     Number of k-points >= 100: set verbosity='high' to print them.

     Dense  grid:    12113 G-vectors     FFT dimensions: (  32,  32,  32)

     Smooth grid:     8685 G-vectors     FFT dimensions: (  27,  27,  27)

     Estimated max dynamical RAM per process >      47.61 MB

     Initial potential from superposition of free atoms

     starting charge       5.9908, renormalised to       6.0000
     Starting wfcs are   10 randomized atomic wfcs
     Checking if some PAW data can be deallocated... 

     total cpu time spent up to now is        0.8 secs

     Self-consistent Calculation

     iteration #  1     ecut=    60.00 Ry     beta= 0.70
     Davidson diagonalization with overlap
     ethr =  1.00E-02,  avg # of iterations =  3.7

     Threshold (ethr) on eigenvalues was too large:
     Diagonalizing with lowered threshold

     Davidson diagonalization with overlap
     ethr =  1.08E-04,  avg # of iterations =  2.1

     total cpu time spent up to now is        3.8 secs

     total energy              =     -29.85952236 Ry
     estimated scf accuracy    <       0.00634068 Ry

     iteration #  2     ecut=    60.00 Ry     beta= 0.70
     Davidson diagonalization with overlap
     ethr =  1.06E-04,  avg # of iterations =  1.0

     total cpu time spent up to now is        4.8 secs

     total energy              =     -29.85970065 Ry
     estimated scf accuracy    <       0.00032836 Ry

     iteration #  3     ecut=    60.00 Ry     beta= 0.70
     Davidson diagonalization with overlap
     ethr =  5.47E-06,  avg # of iterations =  2.6

     total cpu time spent up to now is        6.2 secs

     total energy              =     -29.85974253 Ry
     estimated scf accuracy    <       0.00000586 Ry

     iteration #  4     ecut=    60.00 Ry     beta= 0.70
     Davidson diagonalization with overlap
     ethr =  9.76E-08,  avg # of iterations =  2.0

     total cpu time spent up to now is        7.5 secs

     total energy              =     -29.85974366 Ry
     estimated scf accuracy    <       0.00000038 Ry

     iteration #  5     ecut=    60.00 Ry     beta= 0.70
     Davidson diagonalization with overlap
     ethr =  6.40E-09,  avg # of iterations =  2.0

     total cpu time spent up to now is        8.7 secs

     End of self-consistent calculation

     Number of k-points >= 100: set verbosity='high' to print the bands.

     the Fermi energy is     4.4937 ev

!    total energy              =     -29.85974373 Ry
     total all-electron energy =       -29.859766 Ry
     estimated scf accuracy    <          6.3E-09 Ry
     smearing contrib. (-TS)   =      -0.00031150 Ry
     internal energy E=F+TS    =     -29.85943222 Ry

     The total energy is F=E-TS. E is the sum of the following terms:
     one-electron contribution =     -19.12781783 Ry
     hartree contribution      =       7.65076264 Ry
     xc contribution           =      -7.40826910 Ry
     ewald contribution        =     -11.14006549 Ry
     one-center paw contrib.   =       0.16595756 Ry

     convergence has been achieved in   5 iterations

     Forces acting on atoms (cartesian axes, Ry/au):

     atom    1 type  1   force =    -0.00018819    0.00283506    0.00112724
     atom    2 type  1   force =     0.00018819   -0.00283506   -0.00112724

     Total force =     0.004323     Total SCF correction =     0.000003


     Computing stress (Cartesian axis) and pressure

          total   stress  (Ry/bohr**3)                   (kbar)     P=      234.01
   0.00159051  -0.00211866   0.00211869          233.97     -311.67      311.67
  -0.00211866   0.00159107  -0.00211826         -311.67      234.05     -311.61
   0.00211869  -0.00211826   0.00159062          311.67     -311.61      233.99


     Writing all to output data dir ./tmp/Li_config_3.save/ :
     XML data file, charge density, pseudopotentials, collected wavefunctions

     init_run     :      0.79s CPU      0.81s WALL (       1 calls)
     electrons    :      7.68s CPU      7.87s WALL (       1 calls)
     forces       :      0.08s CPU      0.10s WALL (       1 calls)
     stress       :      0.49s CPU      0.51s WALL (       1 calls)

     Called by init_run:
     wfcinit      :      0.65s CPU      0.67s WALL (       1 calls)
     potinit      :      0.04s CPU      0.04s WALL (       1 calls)
     hinit0       :      0.08s CPU      0.08s WALL (       1 calls)

     Called by electrons:
     c_bands      :      6.32s CPU      6.49s WALL (       6 calls)
     sum_band     :      1.20s CPU      1.22s WALL (       6 calls)
     v_of_rho     :      0.04s CPU      0.04s WALL (       6 calls)
     newd         :      0.02s CPU      0.02s WALL (       6 calls)
     PAW_pot      :      0.13s CPU      0.13s WALL (       6 calls)
     mix_rho      :      0.00s CPU      0.00s WALL (       6 calls)

     Called by c_bands:
     init_us_2    :      0.27s CPU      0.28s WALL (    3900 calls)
     cegterg      :      6.06s CPU      6.21s WALL (    1560 calls)

     Called by *egterg:
     cdiaghg      :      0.16s CPU      0.16s WALL (    4789 calls)
     h_psi        :      5.46s CPU      5.55s WALL (    5309 calls)
     s_psi        :      0.14s CPU      0.15s WALL (    5309 calls)
     g_psi        :      0.02s CPU      0.02s WALL (    3489 calls)

     Called by h_psi:
     h_psi:calbec :      0.19s CPU      0.23s WALL (    5309 calls)
     vloc_psi     :      5.08s CPU      5.12s WALL (    5309 calls)
     add_vuspsi   :      0.16s CPU      0.17s WALL (    5309 calls)

     General routines
     calbec       :      0.30s CPU      0.39s WALL (    8169 calls)
     fft          :      0.03s CPU      0.03s WALL (      85 calls)
     ffts         :      0.00s CPU      0.00s WALL (      12 calls)
     fftw         :      5.19s CPU      5.22s WALL (   68566 calls)
     interpolate  :      0.00s CPU      0.00s WALL (       6 calls)

     Parallel routines

     PWSCF        :      9.08s CPU      9.48s WALL


   This run was terminated on:  13: 5:55  25Mar2025            

=------------------------------------------------------------------------------=
   JOB DONE.
=------------------------------------------------------------------------------=
Note: The following floating-point exceptions are signalling: IEEE_INVALID_FLAG IEEE_DIVIDE_BY_ZERO IEEE_OVERFLOW_FLAG IEEE_UNDERFLOW_FLAG
