
     Program PWSCF v.7.3.1 starts on 25Mar2025 at 13: 6: 9 

     This program is part of the open-source Quantum ESPRESSO suite
     for quantum simulation of materials; please cite
         "P. Giannozzi et al., J. Phys.:Condens. Matter 21 395502 (2009);
         "P. Giannozzi et al., J. Phys.:Condens. Matter 29 465901 (2017);
         "P. Giannozzi et al., J. Chem. Phys. 152 154105 (2020);
          URL http://www.quantum-espresso.org", 
     in publications or presentations arising from this work. More details at
     http://www.quantum-espresso.org/quote

     Parallel version (MPI), running on     1 processors

     MPI processes distributed on     1 nodes
     0 MiB available memory on the printing compute node when the environment starts

     Reading input from Li_config_5.in

     Current dimensions of program PWSCF are:
     Max number of different atomic species (ntypx) = 10
     Max number of k-points (npk) =  40000
     Max angular momentum in pseudopotentials (lmaxx) =  4

     Subspace diagonalization in iterative solution of the eigenvalue problem:
     a serial algorithm will be used


     G-vector sticks info
     --------------------
     sticks:   dense  smooth     PW     G-vecs:    dense   smooth      PW
     Sum         769     619    197                13451     9597    1721

     Using Slab Decomposition



     bravais-lattice index     =            3
     lattice parameter (alat)  =       6.7356  a.u.
     unit-cell volume          =     152.7918 (a.u.)^3
     number of atoms/cell      =            2
     number of atomic types    =            1
     number of electrons       =         6.00
     number of Kohn-Sham states=            7
     kinetic-energy cutoff     =      60.0000  Ry
     charge density cutoff     =     300.0000  Ry
     scf convergence threshold =      1.0E-08
     mixing beta               =       0.7000
     number of iterations used =            8  plain     mixing
     Exchange-correlation= SLA  PW   PBX  PBC
                           (   1   4   3   4   0   0   0)

     celldm(1)=   6.735606  celldm(2)=   0.000000  celldm(3)=   0.000000
     celldm(4)=   0.000000  celldm(5)=   0.000000  celldm(6)=   0.000000

     crystal axes: (cart. coord. in units of alat)
               a(1) = (   0.500000   0.500000   0.500000 )  
               a(2) = (  -0.500000   0.500000   0.500000 )  
               a(3) = (  -0.500000  -0.500000   0.500000 )  

     reciprocal axes: (cart. coord. in units 2 pi/alat)
               b(1) = (  1.000000  0.000000  1.000000 )  
               b(2) = ( -1.000000  1.000000  0.000000 )  
               b(3) = (  0.000000 -1.000000  1.000000 )  


     PseudoPot. # 1 for Li read from file:
     ../pseudopotentials/Li.pbe-s-kjpaw_psl.1.0.0.UPF
     MD5 check sum: d3662511b3860c829f7212fdb89d6128
     Pseudo is Projector augmented-wave, Zval =  3.0
     Generated using &quot;atomic&quot; code by A. Dal Corso  v.6.3
     Shape of augmentation charge: PSQ
     Using radial grid of 1017 points,  4 beta functions with: 
                l(1) =   0
                l(2) =   0
                l(3) =   1
                l(4) =   1
     Q(r) pseudized with 0 coefficients 


     atomic species   valence    mass     pseudopotential
     Li                3.00     6.94000     Li( 1.00)

     No symmetry found



   Cartesian axes

     site n.     atom                  positions (alat units)
         1        Li     tau(   1) = (   0.0010175   0.0009705   0.0010295  )
         2        Li     tau(   2) = (  -0.2516535   0.2476035   0.7495895  )

     number of k points=   260  Gaussian smearing, width (Ry)=  0.0100

     Number of k-points >= 100: set verbosity='high' to print them.

     Dense  grid:    13451 G-vectors     FFT dimensions: (  36,  36,  36)

     Smooth grid:     9597 G-vectors     FFT dimensions: (  30,  30,  30)

     Estimated max dynamical RAM per process >      53.15 MB

     Initial potential from superposition of free atoms

     starting charge       5.9908, renormalised to       6.0000
     Starting wfcs are   10 randomized atomic wfcs
     Checking if some PAW data can be deallocated... 

     total cpu time spent up to now is        1.3 secs

     Self-consistent Calculation

     iteration #  1     ecut=    60.00 Ry     beta= 0.70
     Davidson diagonalization with overlap
     ethr =  1.00E-02,  avg # of iterations =  3.4

     Threshold (ethr) on eigenvalues was too large:
     Diagonalizing with lowered threshold

     Davidson diagonalization with overlap
     ethr =  9.80E-05,  avg # of iterations =  2.5

     total cpu time spent up to now is        5.8 secs

     total energy              =     -29.88002679 Ry
     estimated scf accuracy    <       0.00569552 Ry

     iteration #  2     ecut=    60.00 Ry     beta= 0.70
     Davidson diagonalization with overlap
     ethr =  9.49E-05,  avg # of iterations =  1.0

     total cpu time spent up to now is        7.5 secs

     total energy              =     -29.88018269 Ry
     estimated scf accuracy    <       0.00029174 Ry

     iteration #  3     ecut=    60.00 Ry     beta= 0.70
     Davidson diagonalization with overlap
     ethr =  4.86E-06,  avg # of iterations =  2.6

     total cpu time spent up to now is        9.5 secs

     total energy              =     -29.88022179 Ry
     estimated scf accuracy    <       0.00000525 Ry

     iteration #  4     ecut=    60.00 Ry     beta= 0.70
     Davidson diagonalization with overlap
     ethr =  8.76E-08,  avg # of iterations =  2.0

     total cpu time spent up to now is       11.5 secs

     total energy              =     -29.88022274 Ry
     estimated scf accuracy    <       0.00000042 Ry

     iteration #  5     ecut=    60.00 Ry     beta= 0.70
     Davidson diagonalization with overlap
     ethr =  6.92E-09,  avg # of iterations =  2.0

     total cpu time spent up to now is       13.4 secs

     End of self-consistent calculation

     Number of k-points >= 100: set verbosity='high' to print the bands.

     the Fermi energy is     3.9408 ev

!    total energy              =     -29.88022281 Ry
     total all-electron energy =       -29.880246 Ry
     estimated scf accuracy    <          5.4E-09 Ry
     smearing contrib. (-TS)   =      -0.00026702 Ry
     internal energy E=F+TS    =     -29.87995579 Ry

     The total energy is F=E-TS. E is the sum of the following terms:
     one-electron contribution =     -19.67751390 Ry
     hartree contribution      =       7.80426907 Ry
     xc contribution           =      -7.37524583 Ry
     ewald contribution        =     -10.79723162 Ry
     one-center paw contrib.   =       0.16576650 Ry

     convergence has been achieved in   5 iterations

     Forces acting on atoms (cartesian axes, Ry/au):

     atom    1 type  1   force =     0.00118215    0.00288086    0.00035374
     atom    2 type  1   force =    -0.00118215   -0.00288086   -0.00035374

     Total force =     0.004432     Total SCF correction =     0.000006


     Computing stress (Cartesian axis) and pressure

          total   stress  (Ry/bohr**3)                   (kbar)     P=      177.87
   0.00120902  -0.00191015   0.00191058          177.85     -280.99      281.06
  -0.00191015   0.00120960  -0.00191039         -280.99      177.94     -281.03
   0.00191058  -0.00191039   0.00120886          281.06     -281.03      177.83


     Writing all to output data dir ./tmp/Li_config_5.save/ :
     XML data file, charge density, pseudopotentials, collected wavefunctions

     init_run     :      1.18s CPU      1.23s WALL (       1 calls)
     electrons    :     11.81s CPU     12.17s WALL (       1 calls)
     forces       :      0.08s CPU      0.12s WALL (       1 calls)
     stress       :      0.54s CPU      0.57s WALL (       1 calls)

     Called by init_run:
     wfcinit      :      1.03s CPU      1.08s WALL (       1 calls)
     potinit      :      0.04s CPU      0.04s WALL (       1 calls)
     hinit0       :      0.08s CPU      0.08s WALL (       1 calls)

     Called by electrons:
     c_bands      :      9.73s CPU     10.03s WALL (       6 calls)
     sum_band     :      1.91s CPU      1.96s WALL (       6 calls)
     v_of_rho     :      0.05s CPU      0.05s WALL (       6 calls)
     newd         :      0.02s CPU      0.02s WALL (       6 calls)
     PAW_pot      :      0.13s CPU      0.13s WALL (       6 calls)
     mix_rho      :      0.00s CPU      0.00s WALL (       6 calls)

     Called by c_bands:
     init_us_2    :      0.30s CPU      0.32s WALL (    3900 calls)
     cegterg      :      9.44s CPU      9.73s WALL (    1560 calls)

     Called by *egterg:
     cdiaghg      :      0.16s CPU      0.16s WALL (    4800 calls)
     h_psi        :      9.08s CPU      9.26s WALL (    5320 calls)
     s_psi        :      0.18s CPU      0.20s WALL (    5320 calls)
     g_psi        :      0.03s CPU      0.03s WALL (    3500 calls)

     Called by h_psi:
     h_psi:calbec :      0.22s CPU      0.30s WALL (    5320 calls)
     vloc_psi     :      8.65s CPU      8.72s WALL (    5320 calls)
     add_vuspsi   :      0.18s CPU      0.21s WALL (    5320 calls)

     General routines
     calbec       :      0.34s CPU      0.49s WALL (    8180 calls)
     fft          :      0.03s CPU      0.03s WALL (      85 calls)
     ffts         :      0.00s CPU      0.00s WALL (      12 calls)
     fftw         :      9.15s CPU      9.22s WALL (   68666 calls)
     interpolate  :      0.01s CPU      0.01s WALL (       6 calls)

     Parallel routines

     PWSCF        :     13.66s CPU     14.28s WALL


   This run was terminated on:  13: 6:23  25Mar2025            

=------------------------------------------------------------------------------=
   JOB DONE.
=------------------------------------------------------------------------------=
Note: The following floating-point exceptions are signalling: IEEE_INVALID_FLAG IEEE_DIVIDE_BY_ZERO IEEE_OVERFLOW_FLAG IEEE_UNDERFLOW_FLAG
