
     Program PWSCF v.7.3.1 starts on 25Mar2025 at 13: 5:18 

     This program is part of the open-source Quantum ESPRESSO suite
     for quantum simulation of materials; please cite
         "P. Giannozzi et al., J. Phys.:Condens. Matter 21 395502 (2009);
         "P. Giannozzi et al., J. Phys.:Condens. Matter 29 465901 (2017);
         "P. Giannozzi et al., J. Chem. Phys. 152 154105 (2020);
          URL http://www.quantum-espresso.org", 
     in publications or presentations arising from this work. More details at
     http://www.quantum-espresso.org/quote

     Parallel version (MPI), running on     1 processors

     MPI processes distributed on     1 nodes
     0 MiB available memory on the printing compute node when the environment starts

     Reading input from Li_config_1.in

     Current dimensions of program PWSCF are:
     Max number of different atomic species (ntypx) = 10
     Max number of k-points (npk) =  40000
     Max angular momentum in pseudopotentials (lmaxx) =  4

     Subspace diagonalization in iterative solution of the eigenvalue problem:
     a serial algorithm will be used


     G-vector sticks info
     --------------------
     sticks:   dense  smooth     PW     G-vecs:    dense   smooth      PW
     Sum         735     587    181                12623     8949    1553

     Using Slab Decomposition



     bravais-lattice index     =            3
     lattice parameter (alat)  =       6.6072  a.u.
     unit-cell volume          =     144.2191 (a.u.)^3
     number of atoms/cell      =            2
     number of atomic types    =            1
     number of electrons       =         6.00
     number of Kohn-Sham states=            7
     kinetic-energy cutoff     =      60.0000  Ry
     charge density cutoff     =     300.0000  Ry
     scf convergence threshold =      1.0E-08
     mixing beta               =       0.7000
     number of iterations used =            8  plain     mixing
     Exchange-correlation= SLA  PW   PBX  PBC
                           (   1   4   3   4   0   0   0)

     celldm(1)=   6.607202  celldm(2)=   0.000000  celldm(3)=   0.000000
     celldm(4)=   0.000000  celldm(5)=   0.000000  celldm(6)=   0.000000

     crystal axes: (cart. coord. in units of alat)
               a(1) = (   0.500000   0.500000   0.500000 )  
               a(2) = (  -0.500000   0.500000   0.500000 )  
               a(3) = (  -0.500000  -0.500000   0.500000 )  

     reciprocal axes: (cart. coord. in units 2 pi/alat)
               b(1) = (  1.000000  0.000000  1.000000 )  
               b(2) = ( -1.000000  1.000000  0.000000 )  
               b(3) = (  0.000000 -1.000000  1.000000 )  


     PseudoPot. # 1 for Li read from file:
     ../pseudopotentials/Li.pbe-s-kjpaw_psl.1.0.0.UPF
     MD5 check sum: d3662511b3860c829f7212fdb89d6128
     Pseudo is Projector augmented-wave, Zval =  3.0
     Generated using &quot;atomic&quot; code by A. Dal Corso  v.6.3
     Shape of augmentation charge: PSQ
     Using radial grid of 1017 points,  4 beta functions with: 
                l(1) =   0
                l(2) =   0
                l(3) =   1
                l(4) =   1
     Q(r) pseudized with 0 coefficients 


     atomic species   valence    mass     pseudopotential
     Li                3.00     6.94000     Li( 1.00)

     No symmetry found



   Cartesian axes

     site n.     atom                  positions (alat units)
         1        Li     tau(   1) = (   0.0007415  -0.0011895  -0.0001555  )
         2        Li     tau(   2) = (  -0.2482990   0.2496880   0.7491510  )

     number of k points=   260  Gaussian smearing, width (Ry)=  0.0100

     Number of k-points >= 100: set verbosity='high' to print them.

     Dense  grid:    12623 G-vectors     FFT dimensions: (  32,  32,  32)

     Smooth grid:     8949 G-vectors     FFT dimensions: (  30,  30,  30)

     Estimated max dynamical RAM per process >      49.33 MB

     Initial potential from superposition of free atoms

     starting charge       5.9908, renormalised to       6.0000
     Starting wfcs are   10 randomized atomic wfcs
     Checking if some PAW data can be deallocated... 

     total cpu time spent up to now is        1.1 secs

     Self-consistent Calculation

     iteration #  1     ecut=    60.00 Ry     beta= 0.70
     Davidson diagonalization with overlap
     ethr =  1.00E-02,  avg # of iterations =  3.5

     Threshold (ethr) on eigenvalues was too large:
     Diagonalizing with lowered threshold

     Davidson diagonalization with overlap
     ethr =  1.04E-04,  avg # of iterations =  2.1

     total cpu time spent up to now is        5.4 secs

     total energy              =     -29.86778574 Ry
     estimated scf accuracy    <       0.00607481 Ry

     iteration #  2     ecut=    60.00 Ry     beta= 0.70
     Davidson diagonalization with overlap
     ethr =  1.01E-04,  avg # of iterations =  1.0

     total cpu time spent up to now is        7.0 secs

     total energy              =     -29.86795361 Ry
     estimated scf accuracy    <       0.00031363 Ry

     iteration #  3     ecut=    60.00 Ry     beta= 0.70
     Davidson diagonalization with overlap
     ethr =  5.23E-06,  avg # of iterations =  2.6

     total cpu time spent up to now is        9.1 secs

     total energy              =     -29.86799387 Ry
     estimated scf accuracy    <       0.00000560 Ry

     iteration #  4     ecut=    60.00 Ry     beta= 0.70
     Davidson diagonalization with overlap
     ethr =  9.33E-08,  avg # of iterations =  2.0

     total cpu time spent up to now is       10.9 secs

     total energy              =     -29.86799489 Ry
     estimated scf accuracy    <       0.00000038 Ry

     iteration #  5     ecut=    60.00 Ry     beta= 0.70
     Davidson diagonalization with overlap
     ethr =  6.28E-09,  avg # of iterations =  2.0

     total cpu time spent up to now is       12.8 secs

     End of self-consistent calculation

     Number of k-points >= 100: set verbosity='high' to print the bands.

     the Fermi energy is     4.2771 ev

!    total energy              =     -29.86799496 Ry
     total all-electron energy =       -29.868018 Ry
     estimated scf accuracy    <          6.0E-09 Ry
     smearing contrib. (-TS)   =      -0.00029876 Ry
     internal energy E=F+TS    =     -29.86769620 Ry

     The total energy is F=E-TS. E is the sum of the following terms:
     one-electron contribution =     -19.34156509 Ry
     hartree contribution      =       7.71014704 Ry
     xc contribution           =      -7.39541397 Ry
     ewald contribution        =     -11.00674775 Ry
     one-center paw contrib.   =       0.16588357 Ry

     convergence has been achieved in   5 iterations

     Forces acting on atoms (cartesian axes, Ry/au):

     atom    1 type  1   force =    -0.00120729   -0.00008946   -0.00003997
     atom    2 type  1   force =     0.00120729    0.00008946    0.00003997

     Total force =     0.001713     Total SCF correction =     0.000003


     Computing stress (Cartesian axis) and pressure

          total   stress  (Ry/bohr**3)                   (kbar)     P=      211.01
   0.00143446  -0.00203887   0.00203888          211.02     -299.93      299.93
  -0.00203887   0.00143436  -0.00203889         -299.93      211.00     -299.93
   0.00203888  -0.00203889   0.00143435          299.93     -299.93      211.00


     Writing all to output data dir ./tmp/Li_config_1.save/ :
     XML data file, charge density, pseudopotentials, collected wavefunctions

     init_run     :      1.07s CPU      1.10s WALL (       1 calls)
     electrons    :     11.17s CPU     11.68s WALL (       1 calls)
     forces       :      0.08s CPU      0.11s WALL (       1 calls)
     stress       :      0.51s CPU      0.54s WALL (       1 calls)

     Called by init_run:
     wfcinit      :      0.93s CPU      0.95s WALL (       1 calls)
     potinit      :      0.04s CPU      0.04s WALL (       1 calls)
     hinit0       :      0.08s CPU      0.08s WALL (       1 calls)

     Called by electrons:
     c_bands      :      9.21s CPU      9.66s WALL (       6 calls)
     sum_band     :      1.79s CPU      1.85s WALL (       6 calls)
     v_of_rho     :      0.04s CPU      0.04s WALL (       6 calls)
     newd         :      0.02s CPU      0.02s WALL (       6 calls)
     PAW_pot      :      0.13s CPU      0.13s WALL (       6 calls)
     mix_rho      :      0.00s CPU      0.01s WALL (       6 calls)

     Called by c_bands:
     init_us_2    :      0.28s CPU      0.31s WALL (    3900 calls)
     cegterg      :      8.94s CPU      9.37s WALL (    1560 calls)

     Called by *egterg:
     cdiaghg      :      0.15s CPU      0.16s WALL (    4737 calls)
     h_psi        :      8.55s CPU      8.74s WALL (    5257 calls)
     s_psi        :      0.17s CPU      0.23s WALL (    5257 calls)
     g_psi        :      0.02s CPU      0.03s WALL (    3437 calls)

     Called by h_psi:
     h_psi:calbec :      0.20s CPU      0.28s WALL (    5257 calls)
     vloc_psi     :      8.15s CPU      8.21s WALL (    5257 calls)
     add_vuspsi   :      0.17s CPU      0.22s WALL (    5257 calls)

     General routines
     calbec       :      0.32s CPU      0.45s WALL (    8117 calls)
     fft          :      0.03s CPU      0.03s WALL (      85 calls)
     ffts         :      0.00s CPU      0.00s WALL (      12 calls)
     fftw         :      8.72s CPU      8.78s WALL (   68526 calls)
     interpolate  :      0.01s CPU      0.01s WALL (       6 calls)

     Parallel routines

     PWSCF        :     12.87s CPU     13.63s WALL


   This run was terminated on:  13: 5:32  25Mar2025            

=------------------------------------------------------------------------------=
   JOB DONE.
=------------------------------------------------------------------------------=
Note: The following floating-point exceptions are signalling: IEEE_INVALID_FLAG IEEE_DIVIDE_BY_ZERO IEEE_OVERFLOW_FLAG IEEE_UNDERFLOW_FLAG
