
     Program PWSCF v.7.3.1 starts on 25Mar2025 at 13: 6:54 

     This program is part of the open-source Quantum ESPRESSO suite
     for quantum simulation of materials; please cite
         "P. Giannozzi et al., J. Phys.:Condens. Matter 21 395502 (2009);
         "P. Giannozzi et al., J. Phys.:Condens. Matter 29 465901 (2017);
         "P. Giannozzi et al., J. Chem. Phys. 152 154105 (2020);
          URL http://www.quantum-espresso.org", 
     in publications or presentations arising from this work. More details at
     http://www.quantum-espresso.org/quote

     Parallel version (MPI), running on     1 processors

     MPI processes distributed on     1 nodes
     0 MiB available memory on the printing compute node when the environment starts

     Reading input from Li_config_8.in

     Current dimensions of program PWSCF are:
     Max number of different atomic species (ntypx) = 10
     Max number of k-points (npk) =  40000
     Max angular momentum in pseudopotentials (lmaxx) =  4

     Subspace diagonalization in iterative solution of the eigenvalue problem:
     a serial algorithm will be used


     G-vector sticks info
     --------------------
     sticks:   dense  smooth     PW     G-vecs:    dense   smooth      PW
     Sum         765     611    197                13331     9453    1721

     Using Slab Decomposition



     bravais-lattice index     =            3
     lattice parameter (alat)  =       6.7123  a.u.
     unit-cell volume          =     151.2087 (a.u.)^3
     number of atoms/cell      =            2
     number of atomic types    =            1
     number of electrons       =         6.00
     number of Kohn-Sham states=            7
     kinetic-energy cutoff     =      60.0000  Ry
     charge density cutoff     =     300.0000  Ry
     scf convergence threshold =      1.0E-08
     mixing beta               =       0.7000
     number of iterations used =            8  plain     mixing
     Exchange-correlation= SLA  PW   PBX  PBC
                           (   1   4   3   4   0   0   0)

     celldm(1)=   6.712262  celldm(2)=   0.000000  celldm(3)=   0.000000
     celldm(4)=   0.000000  celldm(5)=   0.000000  celldm(6)=   0.000000

     crystal axes: (cart. coord. in units of alat)
               a(1) = (   0.500000   0.500000   0.500000 )  
               a(2) = (  -0.500000   0.500000   0.500000 )  
               a(3) = (  -0.500000  -0.500000   0.500000 )  

     reciprocal axes: (cart. coord. in units 2 pi/alat)
               b(1) = (  1.000000  0.000000  1.000000 )  
               b(2) = ( -1.000000  1.000000  0.000000 )  
               b(3) = (  0.000000 -1.000000  1.000000 )  


     PseudoPot. # 1 for Li read from file:
     ../pseudopotentials/Li.pbe-s-kjpaw_psl.1.0.0.UPF
     MD5 check sum: d3662511b3860c829f7212fdb89d6128
     Pseudo is Projector augmented-wave, Zval =  3.0
     Generated using &quot;atomic&quot; code by A. Dal Corso  v.6.3
     Shape of augmentation charge: PSQ
     Using radial grid of 1017 points,  4 beta functions with: 
                l(1) =   0
                l(2) =   0
                l(3) =   1
                l(4) =   1
     Q(r) pseudized with 0 coefficients 


     atomic species   valence    mass     pseudopotential
     Li                3.00     6.94000     Li( 1.00)

     No symmetry found



   Cartesian axes

     site n.     atom                  positions (alat units)
         1        Li     tau(   1) = (   0.0003995   0.0003355   0.0007005  )
         2        Li     tau(   2) = (  -0.2499155   0.2489135   0.7513885  )

     number of k points=   260  Gaussian smearing, width (Ry)=  0.0100

     Number of k-points >= 100: set verbosity='high' to print them.

     Dense  grid:    13331 G-vectors     FFT dimensions: (  36,  36,  36)

     Smooth grid:     9453 G-vectors     FFT dimensions: (  30,  30,  30)

     Estimated max dynamical RAM per process >      52.67 MB

     Initial potential from superposition of free atoms

     starting charge       5.9908, renormalised to       6.0000
     Starting wfcs are   10 randomized atomic wfcs
     Checking if some PAW data can be deallocated... 

     total cpu time spent up to now is        1.2 secs

     Self-consistent Calculation

     iteration #  1     ecut=    60.00 Ry     beta= 0.70
     Davidson diagonalization with overlap
     ethr =  1.00E-02,  avg # of iterations =  3.4

     Threshold (ethr) on eigenvalues was too large:
     Diagonalizing with lowered threshold

     Davidson diagonalization with overlap
     ethr =  9.90E-05,  avg # of iterations =  2.4

     total cpu time spent up to now is        5.7 secs

     total energy              =     -29.87787751 Ry
     estimated scf accuracy    <       0.00576074 Ry

     iteration #  2     ecut=    60.00 Ry     beta= 0.70
     Davidson diagonalization with overlap
     ethr =  9.60E-05,  avg # of iterations =  1.0

     total cpu time spent up to now is        7.3 secs

     total energy              =     -29.87803633 Ry
     estimated scf accuracy    <       0.00029527 Ry

     iteration #  3     ecut=    60.00 Ry     beta= 0.70
     Davidson diagonalization with overlap
     ethr =  4.92E-06,  avg # of iterations =  2.6

     total cpu time spent up to now is        9.6 secs

     total energy              =     -29.87807578 Ry
     estimated scf accuracy    <       0.00000533 Ry

     iteration #  4     ecut=    60.00 Ry     beta= 0.70
     Davidson diagonalization with overlap
     ethr =  8.89E-08,  avg # of iterations =  2.0

     total cpu time spent up to now is       11.6 secs

     total energy              =     -29.87807675 Ry
     estimated scf accuracy    <       0.00000041 Ry

     iteration #  5     ecut=    60.00 Ry     beta= 0.70
     Davidson diagonalization with overlap
     ethr =  6.88E-09,  avg # of iterations =  2.0

     total cpu time spent up to now is       13.5 secs

     End of self-consistent calculation

     Number of k-points >= 100: set verbosity='high' to print the bands.

     the Fermi energy is     4.0012 ev

!    total energy              =     -29.87807682 Ry
     total all-electron energy =       -29.878100 Ry
     estimated scf accuracy    <          5.4E-09 Ry
     smearing contrib. (-TS)   =      -0.00027315 Ry
     internal energy E=F+TS    =     -29.87780367 Ry

     The total energy is F=E-TS. E is the sum of the following terms:
     one-electron contribution =     -19.61784403 Ry
     hartree contribution      =       7.78749916 Ry
     xc contribution           =      -7.37884944 Ry
     ewald contribution        =     -10.83439685 Ry
     one-center paw contrib.   =       0.16578749 Ry

     convergence has been achieved in   5 iterations

     Forces acting on atoms (cartesian axes, Ry/au):

     atom    1 type  1   force =     0.00171237   -0.00053165    0.00103145
     atom    2 type  1   force =    -0.00171237    0.00053165   -0.00103145

     Total force =     0.002925     Total SCF correction =     0.000005


     Computing stress (Cartesian axis) and pressure

          total   stress  (Ry/bohr**3)                   (kbar)     P=      183.55
   0.00124783  -0.00193390   0.00193397          183.56     -284.49      284.50
  -0.00193390   0.00124765  -0.00193388         -284.49      183.54     -284.48
   0.00193397  -0.00193388   0.00124769          284.50     -284.48      183.54


     Writing all to output data dir ./tmp/Li_config_8.save/ :
     XML data file, charge density, pseudopotentials, collected wavefunctions

     init_run     :      1.17s CPU      1.21s WALL (       1 calls)
     electrons    :     11.85s CPU     12.30s WALL (       1 calls)
     forces       :      0.09s CPU      0.10s WALL (       1 calls)
     stress       :      0.54s CPU      0.56s WALL (       1 calls)

     Called by init_run:
     wfcinit      :      1.02s CPU      1.06s WALL (       1 calls)
     potinit      :      0.04s CPU      0.04s WALL (       1 calls)
     hinit0       :      0.08s CPU      0.08s WALL (       1 calls)

     Called by electrons:
     c_bands      :      9.72s CPU     10.03s WALL (       6 calls)
     sum_band     :      1.95s CPU      2.06s WALL (       6 calls)
     v_of_rho     :      0.05s CPU      0.05s WALL (       6 calls)
     newd         :      0.02s CPU      0.03s WALL (       6 calls)
     PAW_pot      :      0.14s CPU      0.15s WALL (       6 calls)
     mix_rho      :      0.00s CPU      0.01s WALL (       6 calls)

     Called by c_bands:
     init_us_2    :      0.30s CPU      0.32s WALL (    3900 calls)
     cegterg      :      9.44s CPU      9.72s WALL (    1560 calls)

     Called by *egterg:
     cdiaghg      :      0.16s CPU      0.16s WALL (    4757 calls)
     h_psi        :      9.09s CPU      9.28s WALL (    5277 calls)
     s_psi        :      0.17s CPU      0.18s WALL (    5277 calls)
     g_psi        :      0.03s CPU      0.03s WALL (    3457 calls)

     Called by h_psi:
     h_psi:calbec :      0.21s CPU      0.28s WALL (    5277 calls)
     vloc_psi     :      8.67s CPU      8.77s WALL (    5277 calls)
     add_vuspsi   :      0.18s CPU      0.20s WALL (    5277 calls)

     General routines
     calbec       :      0.34s CPU      0.45s WALL (    8137 calls)
     fft          :      0.03s CPU      0.03s WALL (      85 calls)
     ffts         :      0.00s CPU      0.00s WALL (      12 calls)
     fftw         :      9.20s CPU      9.32s WALL (   68562 calls)
     interpolate  :      0.01s CPU      0.01s WALL (       6 calls)

     Parallel routines

     PWSCF        :     13.69s CPU     14.36s WALL


   This run was terminated on:  13: 7: 9  25Mar2025            

=------------------------------------------------------------------------------=
   JOB DONE.
=------------------------------------------------------------------------------=
Note: The following floating-point exceptions are signalling: IEEE_INVALID_FLAG IEEE_DIVIDE_BY_ZERO IEEE_OVERFLOW_FLAG IEEE_UNDERFLOW_FLAG
