
     Program PWSCF v.7.3.1 starts on 25Mar2025 at 13: 5:55 

     This program is part of the open-source Quantum ESPRESSO suite
     for quantum simulation of materials; please cite
         "P. Giannozzi et al., J. Phys.:Condens. Matter 21 395502 (2009);
         "P. Giannozzi et al., J. Phys.:Condens. Matter 29 465901 (2017);
         "P. Giannozzi et al., J. Chem. Phys. 152 154105 (2020);
          URL http://www.quantum-espresso.org", 
     in publications or presentations arising from this work. More details at
     http://www.quantum-espresso.org/quote

     Parallel version (MPI), running on     1 processors

     MPI processes distributed on     1 nodes
     0 MiB available memory on the printing compute node when the environment starts

     Reading input from Li_config_4.in

     Current dimensions of program PWSCF are:
     Max number of different atomic species (ntypx) = 10
     Max number of k-points (npk) =  40000
     Max angular momentum in pseudopotentials (lmaxx) =  4

     Subspace diagonalization in iterative solution of the eigenvalue problem:
     a serial algorithm will be used


     G-vector sticks info
     --------------------
     sticks:   dense  smooth     PW     G-vecs:    dense   smooth      PW
     Sum         749     611    181                13115     9453    1601

     Using Slab Decomposition



     bravais-lattice index     =            3
     lattice parameter (alat)  =       6.7084  a.u.
     unit-cell volume          =     150.9493 (a.u.)^3
     number of atoms/cell      =            2
     number of atomic types    =            1
     number of electrons       =         6.00
     number of Kohn-Sham states=            7
     kinetic-energy cutoff     =      60.0000  Ry
     charge density cutoff     =     300.0000  Ry
     scf convergence threshold =      1.0E-08
     mixing beta               =       0.7000
     number of iterations used =            8  plain     mixing
     Exchange-correlation= SLA  PW   PBX  PBC
                           (   1   4   3   4   0   0   0)

     celldm(1)=   6.708422  celldm(2)=   0.000000  celldm(3)=   0.000000
     celldm(4)=   0.000000  celldm(5)=   0.000000  celldm(6)=   0.000000

     crystal axes: (cart. coord. in units of alat)
               a(1) = (   0.500000   0.500000   0.500000 )  
               a(2) = (  -0.500000   0.500000   0.500000 )  
               a(3) = (  -0.500000  -0.500000   0.500000 )  

     reciprocal axes: (cart. coord. in units 2 pi/alat)
               b(1) = (  1.000000  0.000000  1.000000 )  
               b(2) = ( -1.000000  1.000000  0.000000 )  
               b(3) = (  0.000000 -1.000000  1.000000 )  


     PseudoPot. # 1 for Li read from file:
     ../pseudopotentials/Li.pbe-s-kjpaw_psl.1.0.0.UPF
     MD5 check sum: d3662511b3860c829f7212fdb89d6128
     Pseudo is Projector augmented-wave, Zval =  3.0
     Generated using &quot;atomic&quot; code by A. Dal Corso  v.6.3
     Shape of augmentation charge: PSQ
     Using radial grid of 1017 points,  4 beta functions with: 
                l(1) =   0
                l(2) =   0
                l(3) =   1
                l(4) =   1
     Q(r) pseudized with 0 coefficients 


     atomic species   valence    mass     pseudopotential
     Li                3.00     6.94000     Li( 1.00)

     No symmetry found



   Cartesian axes

     site n.     atom                  positions (alat units)
         1        Li     tau(   1) = (  -0.0004760  -0.0014210   0.0010730  )
         2        Li     tau(   2) = (  -0.2504330   0.2503190   0.7501610  )

     number of k points=   260  Gaussian smearing, width (Ry)=  0.0100

     Number of k-points >= 100: set verbosity='high' to print them.

     Dense  grid:    13115 G-vectors     FFT dimensions: (  32,  32,  32)

     Smooth grid:     9453 G-vectors     FFT dimensions: (  30,  30,  30)

     Estimated max dynamical RAM per process >      51.40 MB

     Initial potential from superposition of free atoms

     starting charge       5.9908, renormalised to       6.0000
     Starting wfcs are   10 randomized atomic wfcs
     Checking if some PAW data can be deallocated... 

     total cpu time spent up to now is        1.1 secs

     Self-consistent Calculation

     iteration #  1     ecut=    60.00 Ry     beta= 0.70
     Davidson diagonalization with overlap
     ethr =  1.00E-02,  avg # of iterations =  3.4

     Threshold (ethr) on eigenvalues was too large:
     Diagonalizing with lowered threshold

     Davidson diagonalization with overlap
     ethr =  9.91E-05,  avg # of iterations =  2.3

     total cpu time spent up to now is        5.3 secs

     total energy              =     -29.87751687 Ry
     estimated scf accuracy    <       0.00577125 Ry

     iteration #  2     ecut=    60.00 Ry     beta= 0.70
     Davidson diagonalization with overlap
     ethr =  9.62E-05,  avg # of iterations =  1.0

     total cpu time spent up to now is        6.9 secs

     total energy              =     -29.87767556 Ry
     estimated scf accuracy    <       0.00029591 Ry

     iteration #  3     ecut=    60.00 Ry     beta= 0.70
     Davidson diagonalization with overlap
     ethr =  4.93E-06,  avg # of iterations =  2.6

     total cpu time spent up to now is        8.9 secs

     total energy              =     -29.87771486 Ry
     estimated scf accuracy    <       0.00000532 Ry

     iteration #  4     ecut=    60.00 Ry     beta= 0.70
     Davidson diagonalization with overlap
     ethr =  8.87E-08,  avg # of iterations =  2.0

     total cpu time spent up to now is       10.7 secs

     total energy              =     -29.87771580 Ry
     estimated scf accuracy    <       0.00000040 Ry

     iteration #  5     ecut=    60.00 Ry     beta= 0.70
     Davidson diagonalization with overlap
     ethr =  6.72E-09,  avg # of iterations =  2.0

     total cpu time spent up to now is       12.6 secs

     End of self-consistent calculation

     Number of k-points >= 100: set verbosity='high' to print the bands.

     the Fermi energy is     4.0109 ev

!    total energy              =     -29.87771587 Ry
     total all-electron energy =       -29.877739 Ry
     estimated scf accuracy    <          5.4E-09 Ry
     smearing contrib. (-TS)   =      -0.00027397 Ry
     internal energy E=F+TS    =     -29.87744190 Ry

     The total energy is F=E-TS. E is the sum of the following terms:
     one-electron contribution =     -19.60800606 Ry
     hartree contribution      =       7.78473227 Ry
     xc contribution           =      -7.37944053 Ry
     ewald contribution        =     -10.84051832 Ry
     one-center paw contrib.   =       0.16579074 Ry

     convergence has been achieved in   5 iterations

     Forces acting on atoms (cartesian axes, Ry/au):

     atom    1 type  1   force =    -0.00221124    0.00099934   -0.00156199
     atom    2 type  1   force =     0.00221124   -0.00099934    0.00156199

     Total force =     0.004081     Total SCF correction =     0.000005


     Computing stress (Cartesian axis) and pressure

          total   stress  (Ry/bohr**3)                   (kbar)     P=      184.49
   0.00125431  -0.00193769   0.00193780          184.52     -285.04      285.06
  -0.00193769   0.00125406  -0.00193766         -285.04      184.48     -285.04
   0.00193780  -0.00193766   0.00125414          285.06     -285.04      184.49


     Writing all to output data dir ./tmp/Li_config_4.save/ :
     XML data file, charge density, pseudopotentials, collected wavefunctions

     init_run     :      1.08s CPU      1.09s WALL (       1 calls)
     electrons    :     11.21s CPU     11.47s WALL (       1 calls)
     forces       :      0.08s CPU      0.11s WALL (       1 calls)
     stress       :      0.53s CPU      0.55s WALL (       1 calls)

     Called by init_run:
     wfcinit      :      0.94s CPU      0.95s WALL (       1 calls)
     potinit      :      0.04s CPU      0.04s WALL (       1 calls)
     hinit0       :      0.08s CPU      0.08s WALL (       1 calls)

     Called by electrons:
     c_bands      :      9.24s CPU      9.47s WALL (       6 calls)
     sum_band     :      1.80s CPU      1.84s WALL (       6 calls)
     v_of_rho     :      0.04s CPU      0.04s WALL (       6 calls)
     newd         :      0.02s CPU      0.02s WALL (       6 calls)
     PAW_pot      :      0.13s CPU      0.13s WALL (       6 calls)
     mix_rho      :      0.00s CPU      0.00s WALL (       6 calls)

     Called by c_bands:
     init_us_2    :      0.29s CPU      0.31s WALL (    3900 calls)
     cegterg      :      8.96s CPU      9.17s WALL (    1560 calls)

     Called by *egterg:
     cdiaghg      :      0.16s CPU      0.16s WALL (    4772 calls)
     h_psi        :      8.54s CPU      8.66s WALL (    5292 calls)
     s_psi        :      0.17s CPU      0.18s WALL (    5292 calls)
     g_psi        :      0.03s CPU      0.03s WALL (    3472 calls)

     Called by h_psi:
     h_psi:calbec :      0.21s CPU      0.27s WALL (    5292 calls)
     vloc_psi     :      8.12s CPU      8.16s WALL (    5292 calls)
     add_vuspsi   :      0.19s CPU      0.20s WALL (    5292 calls)

     General routines
     calbec       :      0.33s CPU      0.44s WALL (    8152 calls)
     fft          :      0.03s CPU      0.03s WALL (      85 calls)
     ffts         :      0.00s CPU      0.00s WALL (      12 calls)
     fftw         :      8.68s CPU      8.73s WALL (   68632 calls)
     interpolate  :      0.01s CPU      0.01s WALL (       6 calls)

     Parallel routines

     PWSCF        :     12.94s CPU     13.42s WALL


   This run was terminated on:  13: 6: 9  25Mar2025            

=------------------------------------------------------------------------------=
   JOB DONE.
=------------------------------------------------------------------------------=
Note: The following floating-point exceptions are signalling: IEEE_INVALID_FLAG IEEE_DIVIDE_BY_ZERO IEEE_OVERFLOW_FLAG IEEE_UNDERFLOW_FLAG
