
     Program PWSCF v.7.0 starts on 14Jan2025 at 15:22:56 

     This program is part of the open-source Quantum ESPRESSO suite
     for quantum simulation of materials; please cite
         "P. Giannozzi et al., J. Phys.:Condens. Matter 21 395502 (2009);
         "P. Giannozzi et al., J. Phys.:Condens. Matter 29 465901 (2017);
         "P. Giannozzi et al., J. Chem. Phys. 152 154105 (2020);
          URL http://www.quantum-espresso.org", 
     in publications or presentations arising from this work. More details at
     http://www.quantum-espresso.org/quote

     Parallel version (MPI), running on     4 processors

     MPI processes distributed on     1 nodes
     R & G space division:  proc/nbgrp/npool/nimage =       4
     0 MiB available memory on the printing compute node when the environment starts

     Reading input from temp_vcrelax.in

     Current dimensions of program PWSCF are:
     Max number of different atomic species (ntypx) = 10
     Max number of k-points (npk) =  40000
     Max angular momentum in pseudopotentials (lmaxx) =  4
     Found identity + ( -0.5000 -0.5000 -0.5000) symmetry
     This is a supercell, fractional translations are disabled

     Subspace diagonalization in iterative solution of the eigenvalue problem:
     a serial algorithm will be used


     Parallelization info
     --------------------
     sticks:   dense  smooth     PW     G-vecs:    dense   smooth      PW
     Min          15      15      6                   79       79      21
     Max          16      16      7                   81       81      22
     Sum          63      63     27                  321      321      87

     Using Slab Decomposition



     bravais-lattice index     =            3
     lattice parameter (alat)  =       2.0000  a.u.
     unit-cell volume          =       4.0000 (a.u.)^3
     number of atoms/cell      =            2
     number of atomic types    =            1
     number of electrons       =         6.00
     number of Kohn-Sham states=            3
     kinetic-energy cutoff     =      65.0000  Ry
     charge density cutoff     =     260.0000  Ry
     scf convergence threshold =      1.0E-08
     mixing beta               =       0.7000
     number of iterations used =            8  plain     mixing
     energy convergence thresh.=      1.0E-04
     force convergence thresh. =      1.0E-03
     press convergence thresh. =      5.0E-01
     Exchange-correlation= SLA  PW   PBX  PBC
                           (   1   4   3   4   0   0   0)
     nstep                     =           50


     celldm(1)=   2.000000  celldm(2)=   0.000000  celldm(3)=   0.000000
     celldm(4)=   0.000000  celldm(5)=   0.000000  celldm(6)=   0.000000

     crystal axes: (cart. coord. in units of alat)
               a(1) = (   0.500000   0.500000   0.500000 )  
               a(2) = (  -0.500000   0.500000   0.500000 )  
               a(3) = (  -0.500000  -0.500000   0.500000 )  

     reciprocal axes: (cart. coord. in units 2 pi/alat)
               b(1) = (  1.000000  0.000000  1.000000 )  
               b(2) = ( -1.000000  1.000000  0.000000 )  
               b(3) = (  0.000000 -1.000000  1.000000 )  


     PseudoPot. # 1 for Li read from file:
     ../../pseudopotentials/Li.pbe-s-kjpaw_psl.1.0.0.UPF
     MD5 check sum: d3662511b3860c829f7212fdb89d6128
     Pseudo is Projector augmented-wave, Zval =  3.0
     Generated using &quot;atomic&quot; code by A. Dal Corso  v.6.3
     Shape of augmentation charge: PSQ
     Using radial grid of 1017 points,  4 beta functions with: 
                l(1) =   0
                l(2) =   0
                l(3) =   1
                l(4) =   1
     Q(r) pseudized with 0 coefficients 


     atomic species   valence    mass     pseudopotential
        Li             3.00     6.94000     Li( 1.00)

     12 Sym. Ops., with inversion, found



   Cartesian axes

     site n.     atom                  positions (alat units)
         1           Li  tau(   1) = (   0.0000000   0.0000000   0.0000000  )
         2           Li  tau(   2) = (  -0.2500000   0.2500000   0.7500000  )

     number of k points=    65
                       cart. coord. in units 2pi/alat
        k(    1) = (   0.0000000   0.0000000   0.0000000), wk =   0.0039062
        k(    2) = (   0.0000000  -0.1250000   0.1250000), wk =   0.0234375
        k(    3) = (   0.0000000  -0.2500000   0.2500000), wk =   0.0234375
        k(    4) = (   0.0000000  -0.3750000   0.3750000), wk =   0.0234375
        k(    5) = (   0.0000000   0.5000000  -0.5000000), wk =   0.0117188
        k(    6) = (  -0.1250000  -0.1250000   0.2500000), wk =   0.0468750
        k(    7) = (  -0.1250000  -0.2500000   0.3750000), wk =   0.0468750
        k(    8) = (  -0.1250000   0.6250000  -0.5000000), wk =   0.0468750
        k(    9) = (  -0.2500000   0.7500000  -0.5000000), wk =   0.0468750
        k(   10) = (  -0.2500000   0.6250000  -0.3750000), wk =   0.0468750
        k(   11) = (   0.0000000   0.0000000   0.2500000), wk =   0.0234375
        k(   12) = (   0.0000000  -0.1250000   0.3750000), wk =   0.0468750
        k(   13) = (   0.0000000  -0.2500000   0.5000000), wk =   0.0468750
        k(   14) = (   0.0000000   0.6250000  -0.3750000), wk =   0.0234375
        k(   15) = (  -0.1250000  -0.1250000   0.5000000), wk =   0.0468750
        k(   16) = (  -0.1250000   0.7500000  -0.3750000), wk =   0.0468750
        k(   17) = (  -0.2500000   0.2500000   0.2500000), wk =   0.0234375
        k(   18) = (  -0.2500000   0.7500000  -0.2500000), wk =   0.0234375
        k(   19) = (   0.6250000  -0.6250000   0.2500000), wk =   0.0234375
        k(   20) = (   0.5000000  -0.5000000   0.2500000), wk =   0.0234375
        k(   21) = (   0.5000000  -0.6250000   0.3750000), wk =   0.0468750
        k(   22) = (   0.0000000   0.0000000   0.5000000), wk =   0.0234375
        k(   23) = (   0.0000000  -0.1250000   0.6250000), wk =   0.0468750
        k(   24) = (   0.0000000   0.7500000  -0.2500000), wk =   0.0234375
        k(   25) = (  -0.1250000   0.8750000  -0.2500000), wk =   0.0468750
        k(   26) = (   0.5000000  -0.5000000   0.5000000), wk =   0.0078125
        k(   27) = (   0.0000000   0.0000000   0.7500000), wk =   0.0234375
        k(   28) = (   0.0000000   0.8750000  -0.1250000), wk =   0.0234375
        k(   29) = (   0.0000000   0.0000000  -1.0000000), wk =   0.0039062
        k(   30) = (   0.0000000   0.1250000   0.1250000), wk =   0.0234375
        k(   31) = (   0.0000000   0.2500000   0.2500000), wk =   0.0234375
        k(   32) = (   0.0000000   0.3750000   0.3750000), wk =   0.0234375
        k(   33) = (   0.0000000  -0.5000000  -0.5000000), wk =   0.0117188
        k(   34) = (  -0.1250000   0.1250000  -0.2500000), wk =   0.0234375
        k(   35) = (  -0.1250000  -0.2500000  -0.1250000), wk =   0.0234375
        k(   36) = (  -0.1250000   0.2500000  -0.3750000), wk =   0.0468750
        k(   37) = (  -0.1250000   0.3750000   0.2500000), wk =   0.0468750
        k(   38) = (  -0.1250000  -0.3750000  -0.2500000), wk =   0.0468750
        k(   39) = (  -0.1250000  -0.6250000   0.5000000), wk =   0.0468750
        k(   40) = (  -0.1250000  -0.5000000  -0.6250000), wk =   0.0468750
        k(   41) = (  -0.1250000   0.5000000   0.6250000), wk =   0.0468750
        k(   42) = (  -0.2500000  -0.7500000   0.5000000), wk =   0.0234375
        k(   43) = (  -0.2500000   0.5000000   0.7500000), wk =   0.0234375
        k(   44) = (  -0.2500000  -0.3750000  -0.6250000), wk =   0.0234375
        k(   45) = (  -0.2500000   0.3750000   0.6250000), wk =   0.0234375
        k(   46) = (   0.0000000   0.3750000   0.1250000), wk =   0.0468750
        k(   47) = (   0.0000000   0.5000000   0.2500000), wk =   0.0468750
        k(   48) = (   0.0000000  -0.3750000  -0.6250000), wk =   0.0234375
        k(   49) = (  -0.1250000   0.1250000  -0.5000000), wk =   0.0234375
        k(   50) = (  -0.1250000  -0.5000000  -0.1250000), wk =   0.0234375
        k(   51) = (  -0.1250000  -0.7500000   0.3750000), wk =   0.0468750
        k(   52) = (  -0.1250000  -0.3750000  -0.7500000), wk =   0.0468750
        k(   53) = (  -0.1250000   0.3750000   0.7500000), wk =   0.0468750
        k(   54) = (  -0.2500000   0.2500000  -0.2500000), wk =   0.0078125
        k(   55) = (  -0.2500000   0.2500000   0.7500000), wk =   0.0078125
        k(   56) = (   0.6250000   0.6250000  -0.2500000), wk =   0.0468750
        k(   57) = (   0.6250000   0.2500000   0.6250000), wk =   0.0234375
        k(   58) = (   0.5000000   0.5000000  -0.2500000), wk =   0.0234375
        k(   59) = (   0.5000000   0.3750000   0.6250000), wk =   0.0234375
        k(   60) = (   0.5000000  -0.3750000  -0.6250000), wk =   0.0234375
        k(   61) = (   0.0000000   0.6250000   0.1250000), wk =   0.0468750
        k(   62) = (   0.0000000  -0.2500000  -0.7500000), wk =   0.0234375
        k(   63) = (  -0.1250000  -0.8750000   0.2500000), wk =   0.0234375
        k(   64) = (  -0.1250000   0.2500000   0.8750000), wk =   0.0234375
        k(   65) = (   0.0000000  -0.1250000  -0.8750000), wk =   0.0234375

     Dense  grid:      321 G-vectors     FFT dimensions: (   9,   9,   9)

     Estimated max dynamical RAM per process >       0.88 MB

     Estimated total dynamical RAM >       3.51 MB

     Initial potential from superposition of free atoms

     starting charge       5.9908, renormalised to       6.0000
     Starting wfcs are   10 randomized atomic wfcs
     Checking if some PAW data can be deallocated... 

     total cpu time spent up to now is        0.2 secs

     Self-consistent Calculation

     iteration #  1     ecut=    65.00 Ry     beta= 0.70
     Davidson diagonalization with overlap
     ethr =  1.00E-02,  avg # of iterations =  3.4

     total cpu time spent up to now is        0.3 secs

     total energy              =     -12.44851531 Ry
     estimated scf accuracy    <       0.11084176 Ry

     iteration #  2     ecut=    65.00 Ry     beta= 0.70
     Davidson diagonalization with overlap
     ethr =  1.85E-03,  avg # of iterations =  1.2

     total cpu time spent up to now is        0.3 secs

     total energy              =     -12.46571708 Ry
     estimated scf accuracy    <       0.00915558 Ry

     iteration #  3     ecut=    65.00 Ry     beta= 0.70
     Davidson diagonalization with overlap
     ethr =  1.53E-04,  avg # of iterations =  1.6

     total cpu time spent up to now is        0.3 secs

     total energy              =     -12.46658054 Ry
     estimated scf accuracy    <       0.00001999 Ry

     iteration #  4     ecut=    65.00 Ry     beta= 0.70
     Davidson diagonalization with overlap
     ethr =  3.33E-07,  avg # of iterations =  3.0

     total cpu time spent up to now is        0.3 secs

     total energy              =     -12.46843032 Ry
     estimated scf accuracy    <       0.00008001 Ry

     iteration #  5     ecut=    65.00 Ry     beta= 0.70
     Davidson diagonalization with overlap
     ethr =  3.33E-07,  avg # of iterations =  1.0

     total cpu time spent up to now is        0.3 secs

     total energy              =     -12.46839853 Ry
     estimated scf accuracy    <       0.00010013 Ry

     iteration #  6     ecut=    65.00 Ry     beta= 0.70
     Davidson diagonalization with overlap
     ethr =  3.33E-07,  avg # of iterations =  1.9

     total cpu time spent up to now is        0.3 secs

     total energy              =     -12.46840116 Ry
     estimated scf accuracy    <       0.00000231 Ry

     iteration #  7     ecut=    65.00 Ry     beta= 0.70
     Davidson diagonalization with overlap
     ethr =  3.85E-08,  avg # of iterations =  1.8

     total cpu time spent up to now is        0.4 secs

     total energy              =     -12.46840144 Ry
     estimated scf accuracy    <       0.00000005 Ry

     iteration #  8     ecut=    65.00 Ry     beta= 0.70
     Davidson diagonalization with overlap
     c_bands:  1 eigenvalues not converged
     ethr =  8.74E-10,  avg # of iterations =  2.4

     total cpu time spent up to now is        0.4 secs

     total energy              =     -12.46840205 Ry
     estimated scf accuracy    <       0.00000263 Ry

     iteration #  9     ecut=    65.00 Ry     beta= 0.70
     Davidson diagonalization with overlap
     c_bands:  1 eigenvalues not converged
     ethr =  8.74E-10,  avg # of iterations =  1.3

     total cpu time spent up to now is        0.4 secs

     total energy              =     -12.46840208 Ry
     estimated scf accuracy    <       0.00000275 Ry

     iteration # 10     ecut=    65.00 Ry     beta= 0.70
     Davidson diagonalization with overlap
     c_bands:  1 eigenvalues not converged
     ethr =  8.74E-10,  avg # of iterations =  1.3

     total cpu time spent up to now is        0.4 secs

     total energy              =     -12.46840214 Ry
     estimated scf accuracy    <       0.00000301 Ry

     iteration # 11     ecut=    65.00 Ry     beta= 0.70
     Davidson diagonalization with overlap
     c_bands:  1 eigenvalues not converged
     ethr =  8.74E-10,  avg # of iterations =  1.3

     total cpu time spent up to now is        0.4 secs

     total energy              =     -12.46840215 Ry
     estimated scf accuracy    <       0.00000328 Ry

     iteration # 12     ecut=    65.00 Ry     beta= 0.70
     Davidson diagonalization with overlap
     c_bands:  1 eigenvalues not converged
     ethr =  8.74E-10,  avg # of iterations =  2.0

     total cpu time spent up to now is        0.4 secs

     total energy              =     -12.46840215 Ry
     estimated scf accuracy    <       0.00000325 Ry

     iteration # 13     ecut=    65.00 Ry     beta= 0.70
     Davidson diagonalization with overlap
     c_bands:  1 eigenvalues not converged
     ethr =  8.74E-10,  avg # of iterations =  1.3

     total cpu time spent up to now is        0.5 secs

     total energy              =     -12.46840227 Ry
     estimated scf accuracy    <       0.00000411 Ry

     iteration # 14     ecut=    65.00 Ry     beta= 0.70
     Davidson diagonalization with overlap
     c_bands:  1 eigenvalues not converged
     ethr =  8.74E-10,  avg # of iterations =  1.3

     total cpu time spent up to now is        0.5 secs

     total energy              =     -12.46840238 Ry
     estimated scf accuracy    <       0.00000499 Ry

     iteration # 15     ecut=    65.00 Ry     beta= 0.70
     Davidson diagonalization with overlap
     c_bands:  1 eigenvalues not converged
     ethr =  8.74E-10,  avg # of iterations =  1.3

     total cpu time spent up to now is        0.5 secs

     total energy              =     -12.46840241 Ry
     estimated scf accuracy    <       0.00000526 Ry

     iteration # 16     ecut=    65.00 Ry     beta= 0.70
     Davidson diagonalization with overlap
     ethr =  8.74E-10,  avg # of iterations =  1.1

     total cpu time spent up to now is        0.5 secs

     total energy              =     -12.46840446 Ry
     estimated scf accuracy    <       0.00000540 Ry

     iteration # 17     ecut=    65.00 Ry     beta= 0.70
     Davidson diagonalization with overlap
     c_bands:  1 eigenvalues not converged
     c_bands:  1 eigenvalues not converged
     c_bands:  1 eigenvalues not converged
     ethr =  8.74E-10,  avg # of iterations =  4.7

     total cpu time spent up to now is        0.5 secs

     total energy              =     -12.46840447 Ry
     estimated scf accuracy    <       0.00001306 Ry

     iteration # 18     ecut=    65.00 Ry     beta= 0.70
     Davidson diagonalization with overlap
     c_bands:  1 eigenvalues not converged
     c_bands:  1 eigenvalues not converged
     ethr =  8.74E-10,  avg # of iterations =  3.2

     total cpu time spent up to now is        0.6 secs

     total energy              =     -12.46840544 Ry
     estimated scf accuracy    <       0.00001412 Ry

     iteration # 19     ecut=    65.00 Ry     beta= 0.70
     Davidson diagonalization with overlap
     c_bands:  1 eigenvalues not converged
     c_bands:  1 eigenvalues not converged
     ethr =  8.74E-10,  avg # of iterations =  1.6

     total cpu time spent up to now is        0.6 secs

     total energy              =     -12.46840488 Ry
     estimated scf accuracy    <       0.00001617 Ry

     iteration # 20     ecut=    65.00 Ry     beta= 0.70
     Davidson diagonalization with overlap
     c_bands:  1 eigenvalues not converged
     ethr =  8.74E-10,  avg # of iterations =  1.9

     total cpu time spent up to now is        0.6 secs

     total energy              =     -12.46840491 Ry
     estimated scf accuracy    <       0.00001571 Ry

     iteration # 21     ecut=    65.00 Ry     beta= 0.70
     Davidson diagonalization with overlap
     c_bands:  1 eigenvalues not converged
     ethr =  8.74E-10,  avg # of iterations =  1.3

     total cpu time spent up to now is        0.6 secs

     total energy              =     -12.46840445 Ry
     estimated scf accuracy    <       0.00001687 Ry

     iteration # 22     ecut=    65.00 Ry     beta= 0.70
     Davidson diagonalization with overlap
     ethr =  8.74E-10,  avg # of iterations =  1.3

     total cpu time spent up to now is        0.6 secs

     total energy              =     -12.46840194 Ry
     estimated scf accuracy    <       0.00001543 Ry

     iteration # 23     ecut=    65.00 Ry     beta= 0.70
     Davidson diagonalization with overlap
     ethr =  8.74E-10,  avg # of iterations =  3.0

     total cpu time spent up to now is        0.7 secs

     total energy              =     -12.46840106 Ry
     estimated scf accuracy    <       0.00000872 Ry

     iteration # 24     ecut=    65.00 Ry     beta= 0.70
     Davidson diagonalization with overlap
     c_bands:  1 eigenvalues not converged
     ethr =  8.74E-10,  avg # of iterations =  2.8

     total cpu time spent up to now is        0.7 secs

     total energy              =     -12.46840078 Ry
     estimated scf accuracy    <       0.00000455 Ry

     iteration # 25     ecut=    65.00 Ry     beta= 0.70
     Davidson diagonalization with overlap
     c_bands:  1 eigenvalues not converged
     ethr =  8.74E-10,  avg # of iterations =  3.7

     total cpu time spent up to now is        0.7 secs

     total energy              =     -12.46840156 Ry
     estimated scf accuracy    <       0.00000191 Ry

     iteration # 26     ecut=    65.00 Ry     beta= 0.70
     Davidson diagonalization with overlap
     ethr =  8.74E-10,  avg # of iterations =  3.7

     total cpu time spent up to now is        0.7 secs

     total energy              =     -12.46840170 Ry
     estimated scf accuracy    <       0.00000316 Ry

     iteration # 27     ecut=    65.00 Ry     beta= 0.70
     Davidson diagonalization with overlap
     ethr =  8.74E-10,  avg # of iterations =  1.2

     total cpu time spent up to now is        0.7 secs

     total energy              =     -12.46840144 Ry
     estimated scf accuracy    <       0.00000225 Ry

     iteration # 28     ecut=    65.00 Ry     beta= 0.70
     Davidson diagonalization with overlap
     c_bands:  1 eigenvalues not converged
     ethr =  8.74E-10,  avg # of iterations =  2.4

     total cpu time spent up to now is        0.7 secs

     total energy              =     -12.46840151 Ry
     estimated scf accuracy    <       0.00000040 Ry

     iteration # 29     ecut=    65.00 Ry     beta= 0.70
     Davidson diagonalization with overlap
     c_bands:  1 eigenvalues not converged
     ethr =  8.74E-10,  avg # of iterations =  1.3

     total cpu time spent up to now is        0.8 secs

     total energy              =     -12.46840157 Ry
     estimated scf accuracy    <       0.00000026 Ry

     iteration # 30     ecut=    65.00 Ry     beta= 0.70
     Davidson diagonalization with overlap
     ethr =  8.74E-10,  avg # of iterations =  1.2

     total cpu time spent up to now is        0.8 secs

     total energy              =     -12.46840162 Ry
     estimated scf accuracy    <       0.00000019 Ry

     iteration # 31     ecut=    65.00 Ry     beta= 0.70
     Davidson diagonalization with overlap
     ethr =  8.74E-10,  avg # of iterations =  1.0

     total cpu time spent up to now is        0.8 secs

     total energy              =     -12.46840162 Ry
     estimated scf accuracy    <       0.00000019 Ry

     iteration # 32     ecut=    65.00 Ry     beta= 0.70
     Davidson diagonalization with overlap
     ethr =  8.74E-10,  avg # of iterations =  1.0

     total cpu time spent up to now is        0.8 secs

     total energy              =     -12.46840162 Ry
     estimated scf accuracy    <       0.00000020 Ry

     iteration # 33     ecut=    65.00 Ry     beta= 0.70
     Davidson diagonalization with overlap
     ethr =  8.74E-10,  avg # of iterations =  1.0

     total cpu time spent up to now is        0.8 secs

     total energy              =     -12.46840162 Ry
     estimated scf accuracy    <       0.00000020 Ry

     iteration # 34     ecut=    65.00 Ry     beta= 0.70
     Davidson diagonalization with overlap
     ethr =  8.74E-10,  avg # of iterations =  1.0

     total cpu time spent up to now is        0.8 secs

     total energy              =     -12.46840162 Ry
     estimated scf accuracy    <       0.00000020 Ry

     iteration # 35     ecut=    65.00 Ry     beta= 0.70
     Davidson diagonalization with overlap
     ethr =  8.74E-10,  avg # of iterations =  1.0

     total cpu time spent up to now is        0.9 secs

     total energy              =     -12.46840162 Ry
     estimated scf accuracy    <       0.00000020 Ry

     iteration # 36     ecut=    65.00 Ry     beta= 0.70
     Davidson diagonalization with overlap
     ethr =  8.74E-10,  avg # of iterations =  1.1

     total cpu time spent up to now is        0.9 secs

     total energy              =     -12.46840163 Ry
     estimated scf accuracy    <       0.00000020 Ry

     iteration # 37     ecut=    65.00 Ry     beta= 0.70
     Davidson diagonalization with overlap
     ethr =  8.74E-10,  avg # of iterations =  1.0

     total cpu time spent up to now is        0.9 secs

     total energy              =     -12.46840163 Ry
     estimated scf accuracy    <       0.00000021 Ry

     iteration # 38     ecut=    65.00 Ry     beta= 0.70
     Davidson diagonalization with overlap
     ethr =  8.74E-10,  avg # of iterations =  1.0

     total cpu time spent up to now is        0.9 secs

     total energy              =     -12.46840162 Ry
     estimated scf accuracy    <       0.00000015 Ry

     iteration # 39     ecut=    65.00 Ry     beta= 0.70
     Davidson diagonalization with overlap
     ethr =  8.74E-10,  avg # of iterations =  1.0

     total cpu time spent up to now is        0.9 secs

     End of self-consistent calculation

          k = 0.0000 0.0000 0.0000 (    43 PWs)   bands (ev):

   -45.5385 106.5735 168.3210

          k = 0.0000-0.1250 0.1250 (    39 PWs)   bands (ev):

   -42.2719 103.4733 161.4740

          k = 0.0000-0.2500 0.2500 (    34 PWs)   bands (ev):

   -32.5943  77.4716 150.8655

          k = 0.0000-0.3750 0.3750 (    34 PWs)   bands (ev):

   -16.0604  41.2265 142.9121

          k = 0.0000 0.5000-0.5000 (    40 PWs)   bands (ev):

     8.5131   8.5351 139.1996

          k =-0.1250-0.1250 0.2500 (    35 PWs)   bands (ev):

   -36.1019 101.2829 126.6331

          k =-0.1250-0.2500 0.3750 (    35 PWs)   bands (ev):

   -23.7049  67.0691 114.6706

          k =-0.1250 0.6250-0.5000 (    34 PWs)   bands (ev):

    -4.6523  29.7834 111.3906

          k =-0.2500 0.7500-0.5000 (    34 PWs)   bands (ev):

   -11.2397  58.8847  82.7853

          k =-0.2500 0.6250-0.3750 (    35 PWs)   bands (ev):

     7.0821  23.2150  87.9495

          k = 0.0000 0.0000 0.2500 (    39 PWs)   bands (ev):

   -39.1804 102.2867 141.6180

          k = 0.0000-0.1250 0.3750 (    34 PWs)   bands (ev):

   -29.5814  78.1153 134.8400

          k = 0.0000-0.2500 0.5000 (    36 PWs)   bands (ev):

   -13.0920  43.3646 128.6830

          k = 0.0000 0.6250-0.3750 (    34 PWs)   bands (ev):

    11.3327  11.3553 129.8921

          k =-0.1250-0.1250 0.5000 (    35 PWs)   bands (ev):

   -18.2896  71.3784  97.2598

          k =-0.1250 0.7500-0.3750 (    36 PWs)   bands (ev):

    -0.0496  35.7386  95.8042

          k =-0.2500 0.2500 0.2500 (    37 PWs)   bands (ev):

   -27.5437  92.5833 100.8804

          k =-0.2500 0.7500-0.2500 (    32 PWs)   bands (ev):

     7.8103  32.8899  81.1419

          k = 0.6250-0.6250 0.2500 (    34 PWs)   bands (ev):

   -13.2192  55.8290  94.3505

          k = 0.5000-0.5000 0.2500 (    36 PWs)   bands (ev):

     6.4054  19.7792  98.6818

          k = 0.5000-0.6250 0.3750 (    34 PWs)   bands (ev):

    -2.8568  49.1371  78.5259

          k = 0.0000 0.0000 0.5000 (    35 PWs)   bands (ev):

   -20.9136  78.5465 109.2627

          k = 0.0000-0.1250 0.6250 (    35 PWs)   bands (ev):

    -4.6719  48.4785 110.9540

          k = 0.0000 0.7500-0.2500 (    36 PWs)   bands (ev):

    18.8925  18.9172 115.7304

          k =-0.1250 0.8750-0.2500 (    38 PWs)   bands (ev):

     7.0748  45.6634  87.8986

          k = 0.5000-0.5000 0.5000 (    28 PWs)   bands (ev):

     1.1091  45.7000  89.4355

          k = 0.0000 0.0000 0.7500 (    38 PWs)   bands (ev):

     6.3963  52.7641  98.5404

          k = 0.0000 0.8750-0.1250 (    38 PWs)   bands (ev):

    27.8196  27.8474 111.8313

          k = 0.0000 0.0000-1.0000 (    38 PWs)   bands (ev):

    32.0275  32.0571 122.9876

          k = 0.0000 0.1250 0.1250 (    39 PWs)   bands (ev):

   -42.3260 111.6182 144.7653

          k = 0.0000 0.2500 0.2500 (    34 PWs)   bands (ev):

   -33.3934 104.1058 115.8961

          k = 0.0000 0.3750 0.3750 (    34 PWs)   bands (ev):

   -20.9793  70.6140 111.7025

          k = 0.0000-0.5000-0.5000 (    40 PWs)   bands (ev):

   -13.5069  55.9407 107.6488

          k =-0.1250 0.1250-0.2500 (    35 PWs)   bands (ev):

   -35.7364  82.5366 169.6374

          k =-0.1250-0.2500-0.1250 (    35 PWs)   bands (ev):

   -36.2530 112.5112 117.8572

          k =-0.1250 0.2500-0.3750 (    35 PWs)   bands (ev):

   -22.3630  52.2214 136.7266

          k =-0.1250 0.3750 0.2500 (    35 PWs)   bands (ev):

   -24.9707  88.6952  95.8030

          k =-0.1250-0.3750-0.2500 (    35 PWs)   bands (ev):

   -25.3774  86.0067 110.6220

          k =-0.1250-0.6250 0.5000 (    34 PWs)   bands (ev):

    -0.8510  21.3144 117.9654

          k =-0.1250-0.5000-0.6250 (    34 PWs)   bands (ev):

   -13.3096  63.0620  91.4340

          k =-0.1250 0.5000 0.6250 (    34 PWs)   bands (ev):

   -14.2232  62.7211 110.7181

          k =-0.2500-0.7500 0.5000 (    34 PWs)   bands (ev):

    -4.1510  28.6426 106.2707

          k =-0.2500 0.5000 0.7500 (    34 PWs)   bands (ev):

   -14.9031  73.4793 106.0534

          k =-0.2500-0.3750-0.6250 (    35 PWs)   bands (ev):

    -3.7947  55.7467  68.5492

          k =-0.2500 0.3750 0.6250 (    35 PWs)   bands (ev):

    -9.2458  68.4982  93.1616

          k = 0.0000 0.3750 0.1250 (    34 PWs)   bands (ev):

   -30.2946 102.2700 106.2553

          k = 0.0000 0.5000 0.2500 (    36 PWs)   bands (ev):

   -18.0232  74.2936  99.0973

          k = 0.0000-0.3750-0.6250 (    34 PWs)   bands (ev):

   -10.6852  60.1447  99.1058

          k =-0.1250 0.1250-0.5000 (    35 PWs)   bands (ev):

   -16.0846  51.0752 127.2765

          k =-0.1250-0.5000-0.1250 (    35 PWs)   bands (ev):

   -19.9784  85.8467 104.2990

          k =-0.1250-0.7500 0.3750 (    36 PWs)   bands (ev):

     5.4942  23.9932 104.9181

          k =-0.1250-0.3750-0.7500 (    36 PWs)   bands (ev):

    -6.4703  67.0491  71.4853

          k =-0.1250 0.3750 0.7500 (    36 PWs)   bands (ev):

    -9.7958  70.1038 103.3995

          k =-0.2500 0.2500-0.2500 (    37 PWs)   bands (ev):

   -25.6761  56.4302 148.3604

          k =-0.2500 0.2500 0.7500 (    32 PWs)   bands (ev):

    -5.9157  81.0449  81.0449

          k = 0.6250 0.6250-0.2500 (    34 PWs)   bands (ev):

   -15.8072  76.3159  86.7631

          k = 0.6250 0.2500 0.6250 (    34 PWs)   bands (ev):

    -7.5177  30.2779 116.1276

          k = 0.5000 0.5000-0.2500 (    36 PWs)   bands (ev):

    -9.0324  64.3303  83.3858

          k = 0.5000 0.3750 0.6250 (    34 PWs)   bands (ev):

    12.3986  16.2652  93.6658

          k = 0.5000-0.3750-0.6250 (    34 PWs)   bands (ev):

    -7.5646  74.2551  81.2185

          k = 0.0000 0.6250 0.1250 (    35 PWs)   bands (ev):

    -9.0011  77.9123  84.7355

          k = 0.0000-0.2500-0.7500 (    36 PWs)   bands (ev):

    -2.1048  72.7281  76.7946

          k =-0.1250-0.8750 0.2500 (    38 PWs)   bands (ev):

    16.7899  26.8028 102.0824

          k =-0.1250 0.2500 0.8750 (    38 PWs)   bands (ev):

    -0.5926  81.4085  82.6374

          k = 0.0000-0.1250-0.8750 (    38 PWs)   bands (ev):

    12.3917  54.2941  93.6569

     highest occupied level (ev):   169.6374

!    total energy              =     -12.46840162 Ry

     total all-electron energy =       -12.468424 Ry
     estimated scf accuracy    <          3.8E-09 Ry

     The total energy is the sum of the following terms:
     one-electron contribution =      33.49124821 Ry
     hartree contribution      =       2.45298708 Ry
     xc contribution           =     -12.17413495 Ry
     ewald contribution        =     -36.36181296 Ry
     one-center paw contrib.   =       0.12331099 Ry

     convergence has been achieved in  39 iterations

 %%%%%%%%%%%%%%%%%%%%%%%%%%%%%%%%%%%%%%%%%%%%%%%%%%%%%%%%%%%%%%%%%%%%%%%%%%%%%%
     Error in routine rgen (51):
     too many r-vectors
 %%%%%%%%%%%%%%%%%%%%%%%%%%%%%%%%%%%%%%%%%%%%%%%%%%%%%%%%%%%%%%%%%%%%%%%%%%%%%%

     stopping ...
