
     Program PWSCF v.7.0 starts on 14Jan2025 at 17:59:28 

     This program is part of the open-source Quantum ESPRESSO suite
     for quantum simulation of materials; please cite
         "P. Giannozzi et al., J. Phys.:Condens. Matter 21 395502 (2009);
         "P. Giannozzi et al., J. Phys.:Condens. Matter 29 465901 (2017);
         "P. Giannozzi et al., J. Chem. Phys. 152 154105 (2020);
          URL http://www.quantum-espresso.org", 
     in publications or presentations arising from this work. More details at
     http://www.quantum-espresso.org/quote

     Parallel version (MPI), running on     4 processors

     MPI processes distributed on     1 nodes
     R & G space division:  proc/nbgrp/npool/nimage =       4
     0 MiB available memory on the printing compute node when the environment starts

     Reading input from si_relax.in

     Current dimensions of program PWSCF are:
     Max number of different atomic species (ntypx) = 10
     Max number of k-points (npk) =  40000
     Max angular momentum in pseudopotentials (lmaxx) =  4

     Subspace diagonalization in iterative solution of the eigenvalue problem:
     a serial algorithm will be used


     Parallelization info
     --------------------
     sticks:   dense  smooth     PW     G-vecs:    dense   smooth      PW
     Min         204     204     63                 3796     3796     670
     Max         205     205     64                 3797     3797     673
     Sum         817     817    253                15185    15185    2685

     Using Slab Decomposition



     bravais-lattice index     =            2
     lattice parameter (alat)  =      14.0000  a.u.
     unit-cell volume          =     686.0000 (a.u.)^3
     number of atoms/cell      =            2
     number of atomic types    =            1
     number of electrons       =         8.00
     number of Kohn-Sham states=            4
     kinetic-energy cutoff     =      30.0000  Ry
     charge density cutoff     =     120.0000  Ry
     scf convergence threshold =      1.0E-08
     mixing beta               =       0.7000
     number of iterations used =            8  plain     mixing
     energy convergence thresh.=      1.0E-05
     force convergence thresh. =      1.0E-04
     press convergence thresh. =      5.0E-01
     Exchange-correlation= SLA  PZ   NOGX NOGC
                           (   1   1   0   0   0   0   0)
     nstep                     =           50


     celldm(1)=  14.000000  celldm(2)=   0.000000  celldm(3)=   0.000000
     celldm(4)=   0.000000  celldm(5)=   0.000000  celldm(6)=   0.000000

     crystal axes: (cart. coord. in units of alat)
               a(1) = (  -0.500000   0.000000   0.500000 )  
               a(2) = (   0.000000   0.500000   0.500000 )  
               a(3) = (  -0.500000   0.500000   0.000000 )  

     reciprocal axes: (cart. coord. in units 2 pi/alat)
               b(1) = ( -1.000000 -1.000000  1.000000 )  
               b(2) = (  1.000000  1.000000  1.000000 )  
               b(3) = ( -1.000000  1.000000 -1.000000 )  


     PseudoPot. # 1 for Si read from file:
     ./pseudos/Si.pz-vbc.UPF
     MD5 check sum: 9f25e6ff280f3123e9b3a84715b2e9c9
     Pseudo is Norm-conserving, Zval =  4.0
     Generated by new atomic code, or converted to UPF format
     Using radial grid of  431 points,  2 beta functions with: 
                l(1) =   0
                l(2) =   1

     atomic species   valence    mass     pseudopotential
        Si             4.00    28.08550     Si( 1.00)

     48 Sym. Ops., with inversion, found (24 have fractional translation)



   Cartesian axes

     site n.     atom                  positions (alat units)
         1           Si  tau(   1) = (   0.0000000   0.0000000   0.0000000  )
         2           Si  tau(   2) = (   0.2500000   0.2500000   0.2500000  )

     number of k points=    28
                       cart. coord. in units 2pi/alat
        k(    1) = (  -0.0833333   0.0833333   0.0833333), wk =   0.0185185
        k(    2) = (  -0.2500000   0.2500000  -0.0833333), wk =   0.0555556
        k(    3) = (  -0.4166667   0.4166667  -0.2500000), wk =   0.0555556
        k(    4) = (   0.4166667  -0.4166667   0.5833333), wk =   0.0555556
        k(    5) = (   0.2500000  -0.2500000   0.4166667), wk =   0.0555556
        k(    6) = (   0.0833333  -0.0833333   0.2500000), wk =   0.0555556
        k(    7) = (  -0.0833333   0.4166667   0.0833333), wk =   0.0555556
        k(    8) = (  -0.2500000   0.5833333  -0.0833333), wk =   0.1111111
        k(    9) = (   0.5833333  -0.2500000   0.7500000), wk =   0.1111111
        k(   10) = (   0.4166667  -0.0833333   0.5833333), wk =   0.1111111
        k(   11) = (   0.2500000   0.0833333   0.4166667), wk =   0.1111111
        k(   12) = (  -0.0833333   0.7500000   0.0833333), wk =   0.0555556
        k(   13) = (   0.7500000  -0.0833333   0.9166667), wk =   0.1111111
        k(   14) = (   0.5833333   0.0833333   0.7500000), wk =   0.1111111
        k(   15) = (   0.4166667   0.2500000   0.5833333), wk =   0.1111111
        k(   16) = (  -0.0833333  -0.9166667   0.0833333), wk =   0.0555556
        k(   17) = (  -0.2500000  -0.7500000  -0.0833333), wk =   0.1111111
        k(   18) = (  -0.0833333  -0.5833333   0.0833333), wk =   0.0555556
        k(   19) = (  -0.2500000   0.2500000   0.2500000), wk =   0.0185185
        k(   20) = (  -0.4166667   0.4166667   0.0833333), wk =   0.0555556
        k(   21) = (   0.4166667  -0.4166667   0.9166667), wk =   0.0555556
        k(   22) = (   0.2500000  -0.2500000   0.7500000), wk =   0.0555556
        k(   23) = (  -0.2500000   0.5833333   0.2500000), wk =   0.0555556
        k(   24) = (   0.5833333  -0.2500000   1.0833333), wk =   0.1111111
        k(   25) = (   0.4166667  -0.0833333   0.9166667), wk =   0.1111111
        k(   26) = (  -0.2500000  -1.0833333   0.2500000), wk =   0.0555556
        k(   27) = (  -0.4166667   0.4166667   0.4166667), wk =   0.0185185
        k(   28) = (   0.4166667  -0.4166667   1.2500000), wk =   0.0555556

     Dense  grid:    15185 G-vectors     FFT dimensions: (  36,  36,  36)

     Estimated max dynamical RAM per process >       3.55 MB

     Estimated total dynamical RAM >      14.20 MB

     Initial potential from superposition of free atoms

     starting charge       7.9990, renormalised to       8.0000
     Starting wfcs are    8 randomized atomic wfcs

     total cpu time spent up to now is        0.2 secs

     Self-consistent Calculation

     iteration #  1     ecut=    30.00 Ry     beta= 0.70
     Davidson diagonalization with overlap
     ethr =  1.00E-02,  avg # of iterations =  1.0

     Threshold (ethr) on eigenvalues was too large:
     Diagonalizing with lowered threshold

     Davidson diagonalization with overlap
     ethr =  1.44E-04,  avg # of iterations =  2.6

     total cpu time spent up to now is        0.3 secs

     total energy              =     -15.50020103 Ry
     estimated scf accuracy    <       0.01246427 Ry

     iteration #  2     ecut=    30.00 Ry     beta= 0.70
     Davidson diagonalization with overlap
     ethr =  1.56E-04,  avg # of iterations =  1.0

     total cpu time spent up to now is        0.4 secs

     total energy              =     -15.50040985 Ry
     estimated scf accuracy    <       0.00089509 Ry

     iteration #  3     ecut=    30.00 Ry     beta= 0.70
     Davidson diagonalization with overlap
     ethr =  1.12E-05,  avg # of iterations =  1.1

     total cpu time spent up to now is        0.4 secs

     total energy              =     -15.50045292 Ry
     estimated scf accuracy    <       0.00000660 Ry

     iteration #  4     ecut=    30.00 Ry     beta= 0.70
     Davidson diagonalization with overlap
     c_bands:  1 eigenvalues not converged
     c_bands:  1 eigenvalues not converged
     c_bands:  1 eigenvalues not converged
     ethr =  8.25E-08,  avg # of iterations =  7.5

     total cpu time spent up to now is        0.6 secs

     total energy              =     -15.50047090 Ry
     estimated scf accuracy    <       0.00000109 Ry

     iteration #  5     ecut=    30.00 Ry     beta= 0.70
     Davidson diagonalization with overlap
     c_bands:  1 eigenvalues not converged
     ethr =  1.37E-08,  avg # of iterations =  4.5

     total cpu time spent up to now is        0.7 secs

     total energy              =     -15.50047176 Ry
     estimated scf accuracy    <       0.00000056 Ry

     iteration #  6     ecut=    30.00 Ry     beta= 0.70
     Davidson diagonalization with overlap
     c_bands:  1 eigenvalues not converged
     c_bands:  1 eigenvalues not converged
     ethr =  7.05E-09,  avg # of iterations =  3.3

     total cpu time spent up to now is        0.8 secs

     total energy              =     -15.50047202 Ry
     estimated scf accuracy    <       0.00000001 Ry

     iteration #  7     ecut=    30.00 Ry     beta= 0.70
     Davidson diagonalization with overlap
     c_bands:  1 eigenvalues not converged
     c_bands:  1 eigenvalues not converged
     ethr =  1.38E-10,  avg # of iterations =  6.7

     total cpu time spent up to now is        0.9 secs

     End of self-consistent calculation

          k =-0.0833 0.0833 0.0833 (  1898 PWs)   bands (ev):

    -8.1358  -4.2631  -0.4425  -0.4425

          k =-0.2500 0.2500-0.0833 (  1914 PWs)   bands (ev):

    -7.9547  -4.7209  -0.9012  -0.5574

          k =-0.4167 0.4167-0.2500 (  1904 PWs)   bands (ev):

    -7.5772  -5.4520  -1.2589  -0.8174

          k = 0.4167-0.4167 0.5833 (  1900 PWs)   bands (ev):

    -7.3832  -5.7556  -1.3256  -0.9571

          k = 0.2500-0.2500 0.4167 (  1903 PWs)   bands (ev):

    -7.7110  -5.2176  -1.0814  -0.8949

          k = 0.0833-0.0833 0.2500 (  1907 PWs)   bands (ev):

    -8.0431  -4.5087  -0.6736  -0.6569

          k =-0.0833 0.4167 0.0833 (  1916 PWs)   bands (ev):

    -7.8607  -4.9148  -0.9868  -0.9370

          k =-0.2500 0.5833-0.0833 (  1909 PWs)   bands (ev):

    -7.5292  -5.5029  -1.4537  -1.1189

          k = 0.5833-0.2500 0.7500 (  1895 PWs)   bands (ev):

    -7.1900  -5.9860  -1.7553  -1.1886

          k = 0.4167-0.0833 0.5833 (  1902 PWs)   bands (ev):

    -7.4049  -5.6917  -1.6833  -1.0311

          k = 0.2500 0.0833 0.4167 (  1913 PWs)   bands (ev):

    -7.7812  -5.0764  -1.1987  -0.8185

          k =-0.0833 0.7500 0.0833 (  1918 PWs)   bands (ev):

    -7.2521  -5.8973  -1.4602  -1.3691

          k = 0.7500-0.0833 0.9167 (  1896 PWs)   bands (ev):

    -6.8405  -6.3883  -1.7090  -1.4840

          k = 0.5833 0.0833 0.7500 (  1895 PWs)   bands (ev):

    -7.0279  -6.1749  -1.8811  -1.2871

          k = 0.4167 0.2500 0.5833 (  1912 PWs)   bands (ev):

    -7.3942  -5.7238  -1.5298  -1.0070

          k =-0.0833-0.9167 0.0833 (  1903 PWs)   bands (ev):

    -6.8466  -6.3864  -1.5622  -1.4633

          k =-0.2500-0.7500-0.0833 (  1899 PWs)   bands (ev):

    -7.2092  -5.9521  -1.6264  -1.3534

          k =-0.0833-0.5833 0.0833 (  1909 PWs)   bands (ev):

    -7.5941  -5.3956  -1.2626  -1.1878

          k =-0.2500 0.2500 0.2500 (  1910 PWs)   bands (ev):

    -7.8720  -4.9069  -0.6938  -0.6938

          k =-0.4167 0.4167 0.0833 (  1904 PWs)   bands (ev):

    -7.6264  -5.3534  -1.4712  -0.7843

          k = 0.4167-0.4167 0.9167 (  1904 PWs)   bands (ev):

    -7.2320  -5.9266  -1.8404  -1.0685

          k = 0.2500-0.2500 0.7500 (  1903 PWs)   bands (ev):

    -7.1998  -5.9690  -1.7123  -1.2402

          k =-0.2500 0.5833 0.2500 (  1905 PWs)   bands (ev):

    -7.4810  -5.5874  -1.4471  -1.0912

          k = 0.5833-0.2500 1.0833 (  1894 PWs)   bands (ev):

    -7.1303  -6.0511  -1.7937  -1.3283

          k = 0.4167-0.0833 0.9167 (  1901 PWs)   bands (ev):

    -6.8343  -6.3904  -1.8037  -1.5434

          k =-0.2500-1.0833 0.2500 (  1894 PWs)   bands (ev):

    -6.9205  -6.2992  -1.8512  -1.3194

          k =-0.4167 0.4167 0.4167 (  1904 PWs)   bands (ev):

    -7.4891  -5.6041  -0.9008  -0.8796

          k = 0.4167-0.4167 1.2500 (  1906 PWs)   bands (ev):

    -7.2881  -5.8687  -1.6587  -1.0272

     highest occupied level (ev):    -0.4425

!    total energy              =     -15.50047209 Ry
     estimated scf accuracy    <          6.5E-11 Ry

     The total energy is the sum of the following terms:
     one-electron contribution =      -1.23285137 Ry
     hartree contribution      =       2.11294324 Ry
     xc contribution           =      -4.06788267 Ry
     ewald contribution        =     -12.31268128 Ry

     convergence has been achieved in   7 iterations


     Computing stress (Cartesian axis) and pressure

          total   stress  (Ry/bohr**3)                   (kbar)     P=      -98.08
  -0.00066675   0.00000000   0.00000000          -98.08        0.00        0.00
   0.00000000  -0.00066675  -0.00000000            0.00      -98.08       -0.00
   0.00000000  -0.00000000  -0.00066675            0.00       -0.00      -98.08


     BFGS Geometry Optimization
     Energy error            =      0.0E+00 Ry
     Gradient error          =      0.0E+00 Ry/Bohr
     Cell gradient error     =      9.8E+01 kbar

     number of scf cycles    =   1
     number of bfgs steps    =   0

     enthalpy           new  =     -15.5004720883 Ry

     new trust radius        =       0.0873157288 bohr
ibrav =      2
 celldm(1) =     13.76663890
Input lattice vectors:
    -0.49166567    -0.00000000     0.49166567
     0.00000000     0.49166567     0.49166567
    -0.49166567     0.49166567    -0.00000000
New lattice vectors in INITIAL alat:
    -0.49166567     0.00000000     0.49166567
     0.00000000     0.49166567     0.49166567
    -0.49166567     0.49166567     0.00000000
New lattice vectors in NEW alat (for information only):
    -0.50000000     0.00000000     0.50000000
     0.00000000     0.50000000     0.50000000
    -0.50000000     0.50000000     0.00000000
Discrepancy in bohr =     0.000000    0.000000    0.000000

Atomic positions rescaled with new alat:
Si            0.0000000000        0.0000000000        0.0000000000    0   0   0
Si            0.2500000000        0.2500000000        0.2500000000    0   0   0
     new conv_thr            =       0.0000000100 Ry

     new unit-cell volume =    652.26454 a.u.^3 (    96.65563 Ang^3 )
     density =      0.96502 g/cm^3

CELL_PARAMETERS (alat= 14.00000000)
  -0.491665675   0.000000000   0.491665675
   0.000000000   0.491665675   0.491665675
  -0.491665675   0.491665675   0.000000000

ATOMIC_POSITIONS (alat)
Si            0.0000000000        0.0000000000        0.0000000000    0   0   0
Si            0.2458328375        0.2458328375        0.2458328375    0   0   0



     Writing config-only to output data dir ./tmp/silicon.save/
     NEW-OLD atomic charge density approx. for the potential
     extrapolated charge    7.58629, renormalised to    8.00000

     total cpu time spent up to now is        1.0 secs

     Self-consistent Calculation

     iteration #  1     ecut=    30.00 Ry     beta= 0.70
     Davidson diagonalization with overlap
     ethr =  1.00E-06,  avg # of iterations =  7.2

     total cpu time spent up to now is        1.1 secs

     total energy              =     -15.51996943 Ry
     estimated scf accuracy    <       0.00246701 Ry

     iteration #  2     ecut=    30.00 Ry     beta= 0.70
     Davidson diagonalization with overlap
     ethr =  3.08E-05,  avg # of iterations =  3.0

     total cpu time spent up to now is        1.2 secs

     total energy              =     -15.52375244 Ry
     estimated scf accuracy    <       0.00132074 Ry

     iteration #  3     ecut=    30.00 Ry     beta= 0.70
     Davidson diagonalization with overlap
     ethr =  1.65E-05,  avg # of iterations =  1.1

     total cpu time spent up to now is        1.3 secs

     total energy              =     -15.52362913 Ry
     estimated scf accuracy    <       0.00032525 Ry

     iteration #  4     ecut=    30.00 Ry     beta= 0.70
     Davidson diagonalization with overlap
     ethr =  4.07E-06,  avg # of iterations =  2.2

     total cpu time spent up to now is        1.4 secs

     total energy              =     -15.52370001 Ry
     estimated scf accuracy    <       0.00001212 Ry

     iteration #  5     ecut=    30.00 Ry     beta= 0.70
     Davidson diagonalization with overlap
     ethr =  1.52E-07,  avg # of iterations =  3.3

     total cpu time spent up to now is        1.4 secs

     total energy              =     -15.52369039 Ry
     estimated scf accuracy    <       0.00002428 Ry

     iteration #  6     ecut=    30.00 Ry     beta= 0.70
     Davidson diagonalization with overlap
     ethr =  1.52E-07,  avg # of iterations =  2.0

     total cpu time spent up to now is        1.5 secs

     total energy              =     -15.52369438 Ry
     estimated scf accuracy    <       0.00000225 Ry

     iteration #  7     ecut=    30.00 Ry     beta= 0.70
     Davidson diagonalization with overlap
     ethr =  2.82E-08,  avg # of iterations =  2.1

     total cpu time spent up to now is        1.6 secs

     total energy              =     -15.52369462 Ry
     estimated scf accuracy    <       0.00000012 Ry

     iteration #  8     ecut=    30.00 Ry     beta= 0.70
     Davidson diagonalization with overlap
     c_bands:  1 eigenvalues not converged
     c_bands:  1 eigenvalues not converged
     ethr =  1.49E-09,  avg # of iterations =  5.1

     total cpu time spent up to now is        1.7 secs

     total energy              =     -15.52369471 Ry
     estimated scf accuracy    <       0.00000001 Ry

     iteration #  9     ecut=    30.00 Ry     beta= 0.70
     Davidson diagonalization with overlap
     c_bands:  1 eigenvalues not converged
     ethr =  1.80E-10,  avg # of iterations =  3.7

     total cpu time spent up to now is        1.8 secs

     total energy              =     -15.52372500 Ry
     estimated scf accuracy    <       0.00000210 Ry

     iteration # 10     ecut=    30.00 Ry     beta= 0.70
     Davidson diagonalization with overlap
     c_bands:  1 eigenvalues not converged
     ethr =  1.80E-10,  avg # of iterations =  1.7

     total cpu time spent up to now is        1.8 secs

     total energy              =     -15.52372497 Ry
     estimated scf accuracy    <       0.00000189 Ry

     iteration # 11     ecut=    30.00 Ry     beta= 0.70
     Davidson diagonalization with overlap
     c_bands:  1 eigenvalues not converged
     ethr =  1.80E-10,  avg # of iterations =  1.8

     total cpu time spent up to now is        1.9 secs

     total energy              =     -15.52372490 Ry
     estimated scf accuracy    <       0.00000190 Ry

     iteration # 12     ecut=    30.00 Ry     beta= 0.70
     Davidson diagonalization with overlap
     c_bands:  1 eigenvalues not converged
     ethr =  1.80E-10,  avg # of iterations =  2.6

     total cpu time spent up to now is        2.0 secs

     total energy              =     -15.52372498 Ry
     estimated scf accuracy    <       0.00000144 Ry

     iteration # 13     ecut=    30.00 Ry     beta= 0.70
     Davidson diagonalization with overlap
     c_bands:  1 eigenvalues not converged
     ethr =  1.80E-10,  avg # of iterations =  1.7

     total cpu time spent up to now is        2.0 secs

     total energy              =     -15.52372500 Ry
     estimated scf accuracy    <       0.00000183 Ry

     iteration # 14     ecut=    30.00 Ry     beta= 0.70
     Davidson diagonalization with overlap
     ethr =  1.80E-10,  avg # of iterations =  1.3

     total cpu time spent up to now is        2.1 secs

     total energy              =     -15.52372511 Ry
     estimated scf accuracy    <       0.00000196 Ry

     iteration # 15     ecut=    30.00 Ry     beta= 0.70
     Davidson diagonalization with overlap
     ethr =  1.80E-10,  avg # of iterations =  2.0

     total cpu time spent up to now is        2.1 secs

     total energy              =     -15.52372540 Ry
     estimated scf accuracy    <       0.00000261 Ry

     iteration # 16     ecut=    30.00 Ry     beta= 0.70
     Davidson diagonalization with overlap
     ethr =  1.80E-10,  avg # of iterations =  2.8

     total cpu time spent up to now is        2.2 secs

     total energy              =     -15.52372516 Ry
     estimated scf accuracy    <       0.00000419 Ry

     iteration # 17     ecut=    30.00 Ry     beta= 0.70
     Davidson diagonalization with overlap
     ethr =  1.80E-10,  avg # of iterations =  2.0

     total cpu time spent up to now is        2.3 secs

     total energy              =     -15.52372453 Ry
     estimated scf accuracy    <       0.00000286 Ry

     iteration # 18     ecut=    30.00 Ry     beta= 0.70
     Davidson diagonalization with overlap
     ethr =  1.80E-10,  avg # of iterations =  5.8

     total cpu time spent up to now is        2.4 secs

     End of self-consistent calculation

          k =-0.0847 0.0847 0.0847 (  1898 PWs)   bands (ev):

    -8.0409  -3.8340  -0.2242  -0.2242

          k =-0.2542 0.2542-0.0847 (  1914 PWs)   bands (ev):

    -7.8478  -4.3562  -0.7130  -0.3448

          k =-0.4237 0.4237-0.2542 (  1904 PWs)   bands (ev):

    -7.4432  -5.1697  -1.0824  -0.6198

          k = 0.4237-0.4237 0.5932 (  1900 PWs)   bands (ev):

    -7.2338  -5.5042  -1.1470  -0.7680

          k = 0.2542-0.2542 0.4237 (  1903 PWs)   bands (ev):

    -7.5870  -4.9104  -0.8933  -0.7040

          k = 0.0847-0.0847 0.2542 (  1907 PWs)   bands (ev):

    -7.9422  -4.1156  -0.4693  -0.4533

          k =-0.0847 0.4237 0.0847 (  1916 PWs)   bands (ev):

    -7.7476  -4.5701  -0.8032  -0.7505

          k =-0.2542 0.5932-0.0847 (  1909 PWs)   bands (ev):

    -7.3932  -5.2168  -1.3001  -0.9417

          k = 0.5932-0.2542 0.7627 (  1895 PWs)   bands (ev):

    -7.0280  -5.7443  -1.6189  -1.0158

          k = 0.4237-0.0847 0.5932 (  1902 PWs)   bands (ev):

    -7.2594  -5.4238  -1.5451  -0.8478

          k = 0.2542 0.0847 0.4237 (  1913 PWs)   bands (ev):

    -7.6625  -4.7511  -1.0293  -0.6211

          k =-0.0847 0.7627 0.0847 (  1918 PWs)   bands (ev):

    -7.0975  -5.6422  -1.3051  -1.2067

          k = 0.7627-0.0847 0.9322 (  1896 PWs)   bands (ev):

    -6.6559  -6.1715  -1.5724  -1.3301

          k = 0.5932 0.0847 0.7627 (  1895 PWs)   bands (ev):

    -6.8549  -5.9445  -1.7572  -1.1208

          k = 0.4237 0.2542 0.5932 (  1912 PWs)   bands (ev):

    -7.2468  -5.4642  -1.3734  -0.8217

          k =-0.0847-0.9322 0.0847 (  1903 PWs)   bands (ev):

    -6.6633  -6.1694  -1.4131  -1.3058

          k =-0.2542-0.7627-0.0847 (  1899 PWs)   bands (ev):

    -7.0509  -5.7024  -1.4840  -1.1915

          k =-0.0847-0.5932 0.0847 (  1909 PWs)   bands (ev):

    -7.4631  -5.0979  -1.0959  -1.0155

          k =-0.2542 0.2542 0.2542 (  1910 PWs)   bands (ev):

    -7.7594  -4.5665  -0.4903  -0.4903

          k =-0.4237 0.4237 0.0847 (  1904 PWs)   bands (ev):

    -7.4967  -5.0564  -1.3193  -0.5850

          k = 0.4237-0.4237 0.9322 (  1904 PWs)   bands (ev):

    -7.0737  -5.6782  -1.7131  -0.8869

          k = 0.2542-0.2542 0.7627 (  1903 PWs)   bands (ev):

    -7.0396  -5.7232  -1.5748  -1.0695

          k =-0.2542 0.5932 0.2542 (  1905 PWs)   bands (ev):

    -7.3408  -5.3125  -1.2878  -0.9120

          k = 0.5932-0.2542 1.1017 (  1894 PWs)   bands (ev):

    -6.9653  -5.8104  -1.6632  -1.1660

          k = 0.4237-0.0847 0.9322 (  1901 PWs)   bands (ev):

    -6.6484  -6.1739  -1.6748  -1.3961

          k =-0.2542-1.1017 0.2542 (  1894 PWs)   bands (ev):

    -6.7403  -6.0774  -1.7253  -1.1533

          k =-0.4237 0.4237 0.4237 (  1904 PWs)   bands (ev):

    -7.3479  -5.3401  -0.6857  -0.6857

          k = 0.4237-0.4237 1.2712 (  1906 PWs)   bands (ev):

    -7.1325  -5.6213  -1.5122  -0.8429

     highest occupied level (ev):    -0.2242

!    total energy              =     -15.52372465 Ry
     estimated scf accuracy    <          8.2E-10 Ry

     The total energy is the sum of the following terms:
     one-electron contribution =      -0.95381275 Ry
     hartree contribution      =       2.04528832 Ry
     xc contribution           =      -4.09380418 Ry
     ewald contribution        =     -12.52139603 Ry

     convergence has been achieved in  18 iterations


     Computing stress (Cartesian axis) and pressure

          total   stress  (Ry/bohr**3)                   (kbar)     P=     -104.82
  -0.00071257   0.00000000   0.00000000         -104.82        0.00        0.00
  -0.00000000  -0.00071257  -0.00000000           -0.00     -104.82       -0.00
   0.00000000  -0.00000000  -0.00071257            0.00       -0.00     -104.82

     Energy error            =      2.3E-02 Ry
     Gradient error          =      0.0E+00 Ry/Bohr
     Cell gradient error     =      1.0E+02 kbar

     number of scf cycles    =   2
     number of bfgs steps    =   1

     enthalpy           old  =     -15.5004720883 Ry
     enthalpy           new  =     -15.5237246501 Ry

     CASE: enthalpy          _new < enthalpy          _old


     WARNING: bfgs curvature condition failed, Theta= 0.774
     new trust radius        =       0.1298774297 bohr
ibrav =      2
 celldm(1) =     13.41659725
Input lattice vectors:
    -0.47916419    -0.00000000     0.47916419
     0.00000000     0.47916419     0.47916419
    -0.47916419     0.47916419     0.00000000
New lattice vectors in INITIAL alat:
    -0.47916419     0.00000000     0.47916419
     0.00000000     0.47916419     0.47916419
    -0.47916419     0.47916419     0.00000000
New lattice vectors in NEW alat (for information only):
    -0.50000000     0.00000000     0.50000000
     0.00000000     0.50000000     0.50000000
    -0.50000000     0.50000000     0.00000000
Discrepancy in bohr =     0.000000    0.000000    0.000000

Atomic positions rescaled with new alat:
Si            0.0000000000        0.0000000000        0.0000000000    0   0   0
Si            0.2500000000        0.2500000000        0.2500000000    0   0   0
     new conv_thr            =            1.0E-10 Ry

     new unit-cell volume =    603.76392 a.u.^3 (    89.46858 Ang^3 )
     density =      1.04254 g/cm^3

CELL_PARAMETERS (alat= 14.00000000)
  -0.479164187   0.000000000   0.479164187
   0.000000000   0.479164187   0.479164187
  -0.479164187   0.479164187   0.000000000

ATOMIC_POSITIONS (alat)
Si            0.0000000000        0.0000000000        0.0000000000    0   0   0
Si            0.2395820937        0.2395820937        0.2395820937    0   0   0



     Writing config-only to output data dir ./tmp/silicon.save/
     NEW-OLD atomic charge density approx. for the potential
     extrapolated charge    7.35744, renormalised to    8.00000

     total cpu time spent up to now is        2.5 secs

     Self-consistent Calculation

     iteration #  1     ecut=    30.00 Ry     beta= 0.70
     Davidson diagonalization with overlap
     ethr =  1.00E-06,  avg # of iterations =  8.5

     total cpu time spent up to now is        2.7 secs

     total energy              =     -15.55157046 Ry
     estimated scf accuracy    <       0.00587268 Ry

     iteration #  2     ecut=    30.00 Ry     beta= 0.70
     Davidson diagonalization with overlap
     ethr =  7.34E-05,  avg # of iterations =  3.0

     total cpu time spent up to now is        2.8 secs

     total energy              =     -15.56004617 Ry
     estimated scf accuracy    <       0.00281099 Ry

     iteration #  3     ecut=    30.00 Ry     beta= 0.70
     Davidson diagonalization with overlap
     ethr =  3.51E-05,  avg # of iterations =  1.1

     total cpu time spent up to now is        2.9 secs

     total energy              =     -15.55980117 Ry
     estimated scf accuracy    <       0.00066774 Ry

     iteration #  4     ecut=    30.00 Ry     beta= 0.70
     Davidson diagonalization with overlap
     ethr =  8.35E-06,  avg # of iterations =  2.2

     total cpu time spent up to now is        2.9 secs

     total energy              =     -15.55993947 Ry
     estimated scf accuracy    <       0.00009900 Ry

     iteration #  5     ecut=    30.00 Ry     beta= 0.70
     Davidson diagonalization with overlap
     ethr =  1.24E-06,  avg # of iterations =  1.7

     total cpu time spent up to now is        3.0 secs

     total energy              =     -15.55993173 Ry
     estimated scf accuracy    <       0.00002906 Ry

     iteration #  6     ecut=    30.00 Ry     beta= 0.70
     Davidson diagonalization with overlap
     ethr =  3.63E-07,  avg # of iterations =  2.6

     total cpu time spent up to now is        3.1 secs

     total energy              =     -15.55993798 Ry
     estimated scf accuracy    <       0.00000016 Ry

     iteration #  7     ecut=    30.00 Ry     beta= 0.70
     Davidson diagonalization with overlap
     ethr =  1.95E-09,  avg # of iterations =  6.6

     total cpu time spent up to now is        3.2 secs

     total energy              =     -15.55993869 Ry
     estimated scf accuracy    <       0.00000052 Ry

     iteration #  8     ecut=    30.00 Ry     beta= 0.70
     Davidson diagonalization with overlap
     ethr =  1.95E-09,  avg # of iterations =  1.2

     total cpu time spent up to now is        3.3 secs

     total energy              =     -15.55993861 Ry
     estimated scf accuracy    <       0.00000018 Ry

     iteration #  9     ecut=    30.00 Ry     beta= 0.70
     Davidson diagonalization with overlap
     ethr =  1.95E-09,  avg # of iterations =  2.0

     total cpu time spent up to now is        3.4 secs

     total energy              =     -15.55993864 Ry
     estimated scf accuracy    <          3.9E-10 Ry

     iteration # 10     ecut=    30.00 Ry     beta= 0.70
     Davidson diagonalization with overlap
     c_bands:  1 eigenvalues not converged
     ethr =  4.86E-12,  avg # of iterations =  7.0

     total cpu time spent up to now is        3.5 secs

     total energy              =     -15.55993864 Ry
     estimated scf accuracy    <          9.3E-10 Ry

     iteration # 11     ecut=    30.00 Ry     beta= 0.70
     Davidson diagonalization with overlap
     ethr =  4.86E-12,  avg # of iterations =  3.6

     total cpu time spent up to now is        3.6 secs

     total energy              =     -15.55993864 Ry
     estimated scf accuracy    <          4.8E-09 Ry

     iteration # 12     ecut=    30.00 Ry     beta= 0.70
     Davidson diagonalization with overlap
     ethr =  4.86E-12,  avg # of iterations =  2.0

     total cpu time spent up to now is        3.7 secs

     total energy              =     -15.55993864 Ry
     estimated scf accuracy    <          2.6E-10 Ry

     iteration # 13     ecut=    30.00 Ry     beta= 0.70
     Davidson diagonalization with overlap
     ethr =  3.22E-12,  avg # of iterations =  2.4

     total cpu time spent up to now is        3.8 secs

     End of self-consistent calculation

          k =-0.0870 0.0870 0.0870 (  1898 PWs)   bands (ev):

    -7.8961  -3.1393   0.1272   0.1272

          k =-0.2609 0.2609-0.0870 (  1914 PWs)   bands (ev):

    -7.6838  -3.7785  -0.4100  -0.0023

          k =-0.4348 0.4348-0.2609 (  1904 PWs)   bands (ev):

    -7.2355  -4.7314  -0.7954  -0.3013

          k = 0.4348-0.4348 0.6087 (  1900 PWs)   bands (ev):

    -7.0005  -5.1174  -0.8553  -0.4633

          k = 0.2609-0.2609 0.4348 (  1903 PWs)   bands (ev):

    -7.3955  -4.4306  -0.5870  -0.3965

          k = 0.0870-0.0870 0.2609 (  1907 PWs)   bands (ev):

    -7.7877  -3.4874  -0.1398  -0.1258

          k =-0.0870 0.4348 0.0870 (  1916 PWs)   bands (ev):

    -7.5737  -4.0245  -0.5073  -0.4505

          k =-0.2609 0.6087-0.0870 (  1909 PWs)   bands (ev):

    -7.1825  -4.7676  -1.0530  -0.6563

          k = 0.6087-0.2609 0.7826 (  1895 PWs)   bands (ev):

    -6.7749  -5.3681  -1.3987  -0.7378

          k = 0.4348-0.0870 0.6087 (  1902 PWs)   bands (ev):

    -7.0333  -5.0046  -1.3230  -0.5526

          k = 0.2609 0.0870 0.4348 (  1913 PWs)   bands (ev):

    -7.4795  -4.2391  -0.7566  -0.3026

          k =-0.0870 0.7826 0.0870 (  1918 PWs)   bands (ev):

    -6.8573  -5.2416  -1.0557  -0.9450

          k = 0.7826-0.0870 0.9565 (  1896 PWs)   bands (ev):

    -6.3674  -5.8320  -1.3535  -1.0827

          k = 0.6087 0.0870 0.7826 (  1895 PWs)   bands (ev):

    -6.5844  -5.5842  -1.5588  -0.8532

          k = 0.4348 0.2609 0.6087 (  1912 PWs)   bands (ev):

    -7.0172  -5.0616  -1.1192  -0.5231

          k =-0.0870-0.9565 0.0870 (  1903 PWs)   bands (ev):

    -6.3772  -5.8294  -1.1733  -1.0521

          k =-0.2609-0.7826-0.0870 (  1899 PWs)   bands (ev):

    -6.8044  -5.3107  -1.2553  -0.9311

          k =-0.0870-0.6087 0.0870 (  1909 PWs)   bands (ev):

    -7.2605  -4.6290  -0.8276  -0.7382

          k =-0.2609 0.2609 0.2609 (  1910 PWs)   bands (ev):

    -7.5860  -4.0318  -0.1624  -0.1624

          k =-0.4348 0.4348 0.0870 (  1904 PWs)   bands (ev):

    -7.2960  -4.5910  -1.0748  -0.2638

          k = 0.4348-0.4348 0.9565 (  1904 PWs)   bands (ev):

    -6.8266  -5.2902  -1.5089  -0.5943

          k = 0.2609-0.2609 0.7826 (  1903 PWs)   bands (ev):

    -6.7899  -5.3392  -1.3536  -0.7947

          k =-0.2609 0.6087 0.2609 (  1905 PWs)   bands (ev):

    -7.1232  -4.8836  -1.0296  -0.6234

          k = 0.6087-0.2609 1.1304 (  1894 PWs)   bands (ev):

    -6.7078  -5.4337  -1.4541  -0.9053

          k = 0.4348-0.0870 0.9565 (  1901 PWs)   bands (ev):

    -6.3574  -5.8349  -1.4686  -1.1599

          k =-0.2609-1.1304 0.2609 (  1894 PWs)   bands (ev):

    -6.4583  -5.7306  -1.5241  -0.8857

          k =-0.4348 0.4348 0.4348 (  1904 PWs)   bands (ev):

    -7.1280  -4.9337  -0.3729  -0.3729

          k = 0.4348-0.4348 1.3044 (  1906 PWs)   bands (ev):

    -6.8895  -5.2379  -1.2747  -0.5457

     highest occupied level (ev):     0.1272

!    total energy              =     -15.55993864 Ry
     estimated scf accuracy    <          9.7E-11 Ry

     The total energy is the sum of the following terms:
     one-electron contribution =      -0.51820675 Ry
     hartree contribution      =       1.94164323 Ry
     xc contribution           =      -4.13529342 Ry
     ewald contribution        =     -12.84808170 Ry

     convergence has been achieved in  13 iterations


     Computing stress (Cartesian axis) and pressure

          total   stress  (Ry/bohr**3)                   (kbar)     P=     -115.02
  -0.00078190  -0.00000000   0.00000000         -115.02       -0.00        0.00
  -0.00000000  -0.00078190   0.00000000           -0.00     -115.02        0.00
   0.00000000   0.00000000  -0.00078190            0.00        0.00     -115.02

     Energy error            =      3.6E-02 Ry
     Gradient error          =      0.0E+00 Ry/Bohr
     Cell gradient error     =      1.2E+02 kbar

     number of scf cycles    =   3
     number of bfgs steps    =   2

     enthalpy           old  =     -15.5237246501 Ry
     enthalpy           new  =     -15.5599386367 Ry

     CASE: enthalpy          _new < enthalpy          _old


     WARNING: bfgs curvature condition failed, Theta= 0.516
     new trust radius        =       0.0705196674 bohr
ibrav =      2
 celldm(1) =     13.22407139
Input lattice vectors:
    -0.47228826    -0.00000000     0.47228826
     0.00000000     0.47228826     0.47228826
    -0.47228826     0.47228826    -0.00000000
New lattice vectors in INITIAL alat:
    -0.47228826     0.00000000     0.47228826
     0.00000000     0.47228826     0.47228826
    -0.47228826     0.47228826     0.00000000
New lattice vectors in NEW alat (for information only):
    -0.50000000     0.00000000     0.50000000
     0.00000000     0.50000000     0.50000000
    -0.50000000     0.50000000     0.00000000
Discrepancy in bohr =     0.000000    0.000000    0.000000

Atomic positions rescaled with new alat:
Si            0.0000000000        0.0000000000        0.0000000000    0   0   0
Si            0.2500000000        0.2500000000        0.2500000000    0   0   0
     new conv_thr            =            1.0E-10 Ry

     new unit-cell volume =    578.14339 a.u.^3 (    85.67201 Ang^3 )
     density =      1.08874 g/cm^3

CELL_PARAMETERS (alat= 14.00000000)
  -0.472288264   0.000000000   0.472288264
   0.000000000   0.472288264   0.472288264
  -0.472288264   0.472288264   0.000000000

ATOMIC_POSITIONS (alat)
Si            0.0000000000        0.0000000000        0.0000000000    0   0   0
Si            0.2361441320        0.2361441320        0.2361441320    0   0   0



     Writing config-only to output data dir ./tmp/silicon.save/
     NEW-OLD atomic charge density approx. for the potential
     extrapolated charge    7.64552, renormalised to    8.00000

     total cpu time spent up to now is        3.8 secs

     Self-consistent Calculation

     iteration #  1     ecut=    30.00 Ry     beta= 0.70
     Davidson diagonalization with overlap
     ethr =  1.00E-06,  avg # of iterations =  6.9

     total cpu time spent up to now is        4.0 secs

     total energy              =     -15.57796213 Ry
     estimated scf accuracy    <       0.00162658 Ry

     iteration #  2     ecut=    30.00 Ry     beta= 0.70
     Davidson diagonalization with overlap
     ethr =  2.03E-05,  avg # of iterations =  3.1

     total cpu time spent up to now is        4.1 secs

     total energy              =     -15.58051339 Ry
     estimated scf accuracy    <       0.00089078 Ry

     iteration #  3     ecut=    30.00 Ry     beta= 0.70
     Davidson diagonalization with overlap
     ethr =  1.11E-05,  avg # of iterations =  1.1

     total cpu time spent up to now is        4.1 secs

     total energy              =     -15.58042567 Ry
     estimated scf accuracy    <       0.00022319 Ry

     iteration #  4     ecut=    30.00 Ry     beta= 0.70
     Davidson diagonalization with overlap
     ethr =  2.79E-06,  avg # of iterations =  2.0

     total cpu time spent up to now is        4.2 secs

     total energy              =     -15.58046839 Ry
     estimated scf accuracy    <       0.00002961 Ry

     iteration #  5     ecut=    30.00 Ry     beta= 0.70
     Davidson diagonalization with overlap
     ethr =  3.70E-07,  avg # of iterations =  1.7

     total cpu time spent up to now is        4.3 secs

     total energy              =     -15.58046679 Ry
     estimated scf accuracy    <       0.00000689 Ry

     iteration #  6     ecut=    30.00 Ry     beta= 0.70
     Davidson diagonalization with overlap
     ethr =  8.62E-08,  avg # of iterations =  2.8

     total cpu time spent up to now is        4.4 secs

     total energy              =     -15.58046867 Ry
     estimated scf accuracy    <       0.00000022 Ry

     iteration #  7     ecut=    30.00 Ry     beta= 0.70
     Davidson diagonalization with overlap
     ethr =  2.73E-09,  avg # of iterations =  4.4

     total cpu time spent up to now is        4.5 secs

     total energy              =     -15.58046879 Ry
     estimated scf accuracy    <       0.00000009 Ry

     iteration #  8     ecut=    30.00 Ry     beta= 0.70
     Davidson diagonalization with overlap
     ethr =  1.18E-09,  avg # of iterations =  1.8

     total cpu time spent up to now is        4.5 secs

     total energy              =     -15.58046879 Ry
     estimated scf accuracy    <          3.6E-09 Ry

     iteration #  9     ecut=    30.00 Ry     beta= 0.70
     Davidson diagonalization with overlap
     ethr =  4.49E-11,  avg # of iterations =  3.6

     total cpu time spent up to now is        4.8 secs

     total energy              =     -15.58046880 Ry
     estimated scf accuracy    <          2.1E-09 Ry

     iteration # 10     ecut=    30.00 Ry     beta= 0.70
     Davidson diagonalization with overlap
     ethr =  2.63E-11,  avg # of iterations =  2.1

     total cpu time spent up to now is        4.9 secs

     total energy              =     -15.58046880 Ry
     estimated scf accuracy    <          6.8E-10 Ry

     iteration # 11     ecut=    30.00 Ry     beta= 0.70
     Davidson diagonalization with overlap
     ethr =  8.51E-12,  avg # of iterations =  2.0

     total cpu time spent up to now is        5.0 secs

     End of self-consistent calculation

          k =-0.0882 0.0882 0.0882 (  1898 PWs)   bands (ev):

    -7.8122  -2.7267   0.3368   0.3368

          k =-0.2647 0.2647-0.0882 (  1914 PWs)   bands (ev):

    -7.5885  -3.4425  -0.2290   0.2023

          k =-0.4411 0.4411-0.2647 (  1904 PWs)   bands (ev):

    -7.1145  -4.4805  -0.6224  -0.1108

          k = 0.4411-0.4411 0.6176 (  1900 PWs)   bands (ev):

    -6.8641  -4.8974  -0.6791  -0.2810

          k = 0.2647-0.2647 0.4411 (  1903 PWs)   bands (ev):

    -7.2842  -4.1547  -0.4024  -0.2129

          k = 0.0882-0.0882 0.2647 (  1907 PWs)   bands (ev):

    -7.6981  -3.1190   0.0572   0.0695

          k =-0.0882 0.4411 0.0882 (  1916 PWs)   bands (ev):

    -7.4728  -3.7067  -0.3305  -0.2714

          k =-0.2647 0.6176-0.0882 (  1909 PWs)   bands (ev):

    -7.0600  -4.5071  -0.9051  -0.4857

          k = 0.6176-0.2647 0.7940 (  1895 PWs)   bands (ev):

    -6.6270  -5.1512  -1.2662  -0.5717

          k = 0.4411-0.0882 0.6176 (  1902 PWs)   bands (ev):

    -6.9016  -4.7621  -1.1900  -0.3761

          k = 0.2647 0.0882 0.4411 (  1913 PWs)   bands (ev):

    -7.3733  -3.9423  -0.5934  -0.1121

          k =-0.0882 0.7940 0.0882 (  1918 PWs)   bands (ev):

    -6.7176  -5.0086  -0.9065  -0.7884

          k = 0.7940-0.0882 0.9705 (  1896 PWs)   bands (ev):

    -6.1994  -5.6345  -1.2228  -0.9347

          k = 0.6176 0.0882 0.7940 (  1895 PWs)   bands (ev):

    -6.4264  -5.3753  -1.4403  -0.6932

          k = 0.4411 0.2647 0.6176 (  1912 PWs)   bands (ev):

    -6.8832  -4.8308  -0.9658  -0.3446

          k =-0.0882-0.9705 0.0882 (  1903 PWs)   bands (ev):

    -6.2108  -5.6317  -1.0298  -0.9001

          k =-0.2647-0.7940-0.0882 (  1899 PWs)   bands (ev):

    -6.6610  -5.0831  -1.1186  -0.7755

          k =-0.0882-0.6176 0.0882 (  1909 PWs)   bands (ev):

    -7.1428  -4.3563  -0.6671  -0.5725

          k =-0.2647 0.2647 0.2647 (  1910 PWs)   bands (ev):

    -7.4854  -3.7232   0.0333   0.0333

          k =-0.4411 0.4411 0.0882 (  1904 PWs)   bands (ev):

    -7.1793  -4.3221  -0.9284  -0.0719

          k = 0.4411-0.4411 0.9705 (  1904 PWs)   bands (ev):

    -6.6825  -5.0657  -1.3866  -0.4194

          k = 0.2647-0.2647 0.7940 (  1903 PWs)   bands (ev):

    -6.6443  -5.1169  -1.2209  -0.6303

          k =-0.2647 0.6176 0.2647 (  1905 PWs)   bands (ev):

    -6.9965  -4.6363  -0.8741  -0.4508

          k = 0.6176-0.2647 1.1469 (  1894 PWs)   bands (ev):

    -6.5577  -5.2151  -1.3289  -0.7496

          k = 0.4411-0.0882 0.9705 (  1901 PWs)   bands (ev):

    -6.1877  -5.6377  -1.3455  -1.0190

          k =-0.2647-1.1469 0.2647 (  1894 PWs)   bands (ev):

    -6.2938  -5.5293  -1.4039  -0.7255

          k =-0.4411 0.4411 0.4411 (  1904 PWs)   bands (ev):

    -6.9997  -4.7027  -0.1858  -0.1858

          k = 0.4411-0.4411 1.3233 (  1906 PWs)   bands (ev):

    -6.7475  -5.0181  -1.1313  -0.3680

     highest occupied level (ev):     0.3368

!    total energy              =     -15.58046880 Ry
     estimated scf accuracy    <          1.3E-11 Ry

     The total energy is the sum of the following terms:
     one-electron contribution =      -0.27036717 Ry
     hartree contribution      =       1.88519396 Ry
     xc contribution           =      -4.16016198 Ry
     ewald contribution        =     -13.03513361 Ry

     convergence has been achieved in  11 iterations


     Computing stress (Cartesian axis) and pressure

          total   stress  (Ry/bohr**3)                   (kbar)     P=     -120.77
  -0.00082100   0.00000000  -0.00000000         -120.77        0.00       -0.00
  -0.00000000  -0.00082100  -0.00000000           -0.00     -120.77       -0.00
  -0.00000000   0.00000000  -0.00082100           -0.00        0.00     -120.77

     Energy error            =      2.1E-02 Ry
     Gradient error          =      0.0E+00 Ry/Bohr
     Cell gradient error     =      1.2E+02 kbar

     number of scf cycles    =   4
     number of bfgs steps    =   3

     enthalpy           old  =     -15.5599386367 Ry
     enthalpy           new  =     -15.5804687955 Ry

     CASE: enthalpy          _new < enthalpy          _old


     WARNING: bfgs curvature condition failed, Theta= 0.784
     new trust radius        =       0.1050177999 bohr
ibrav =      2
 celldm(1) =     12.93528261
Input lattice vectors:
    -0.46197438     0.00000000     0.46197438
     0.00000000     0.46197438     0.46197438
    -0.46197438     0.46197438    -0.00000000
New lattice vectors in INITIAL alat:
    -0.46197438     0.00000000     0.46197438
     0.00000000     0.46197438     0.46197438
    -0.46197438     0.46197438     0.00000000
New lattice vectors in NEW alat (for information only):
    -0.50000000     0.00000000     0.50000000
     0.00000000     0.50000000     0.50000000
    -0.50000000     0.50000000     0.00000000
Discrepancy in bohr =     0.000000    0.000000    0.000000

Atomic positions rescaled with new alat:
Si            0.0000000000        0.0000000000        0.0000000000    0   0   0
Si            0.2500000000        0.2500000000        0.2500000000    0   0   0
     new conv_thr            =            1.0E-10 Ry

     new unit-cell volume =    541.08784 a.u.^3 (    80.18095 Ang^3 )
     density =      1.16330 g/cm^3

CELL_PARAMETERS (alat= 14.00000000)
  -0.461974379   0.000000000   0.461974379
   0.000000000   0.461974379   0.461974379
  -0.461974379   0.461974379   0.000000000

ATOMIC_POSITIONS (alat)
Si            0.0000000000        0.0000000000        0.0000000000    0   0   0
Si            0.2309871894        0.2309871894        0.2309871894    0   0   0



     Writing config-only to output data dir ./tmp/silicon.save/
     NEW-OLD atomic charge density approx. for the potential
     extrapolated charge    7.45220, renormalised to    8.00000

     total cpu time spent up to now is        5.1 secs

     Self-consistent Calculation

     iteration #  1     ecut=    30.00 Ry     beta= 0.70
     Davidson diagonalization with overlap
     ethr =  1.00E-06,  avg # of iterations =  8.0

     total cpu time spent up to now is        5.3 secs

     total energy              =     -15.60630836 Ry
     estimated scf accuracy    <       0.00386074 Ry

     iteration #  2     ecut=    30.00 Ry     beta= 0.70
     Davidson diagonalization with overlap
     ethr =  4.83E-05,  avg # of iterations =  3.0

     total cpu time spent up to now is        5.4 secs

     total energy              =     -15.61205955 Ry
     estimated scf accuracy    <       0.00193372 Ry

     iteration #  3     ecut=    30.00 Ry     beta= 0.70
     Davidson diagonalization with overlap
     ethr =  2.42E-05,  avg # of iterations =  1.1

     total cpu time spent up to now is        5.4 secs

     total energy              =     -15.61188375 Ry
     estimated scf accuracy    <       0.00047002 Ry

     iteration #  4     ecut=    30.00 Ry     beta= 0.70
     Davidson diagonalization with overlap
     ethr =  5.88E-06,  avg # of iterations =  2.0

     total cpu time spent up to now is        5.5 secs

     total energy              =     -15.61196919 Ry
     estimated scf accuracy    <       0.00008291 Ry

     iteration #  5     ecut=    30.00 Ry     beta= 0.70
     Davidson diagonalization with overlap
     ethr =  1.04E-06,  avg # of iterations =  1.6

     total cpu time spent up to now is        5.6 secs

     total energy              =     -15.61196889 Ry
     estimated scf accuracy    <       0.00001156 Ry

     iteration #  6     ecut=    30.00 Ry     beta= 0.70
     Davidson diagonalization with overlap
     ethr =  1.45E-07,  avg # of iterations =  3.1

     total cpu time spent up to now is        5.7 secs

     total energy              =     -15.61197262 Ry
     estimated scf accuracy    <       0.00000027 Ry

     iteration #  7     ecut=    30.00 Ry     beta= 0.70
     Davidson diagonalization with overlap
     ethr =  3.33E-09,  avg # of iterations =  4.6

     total cpu time spent up to now is        5.8 secs

     total energy              =     -15.61197268 Ry
     estimated scf accuracy    <       0.00000044 Ry

     iteration #  8     ecut=    30.00 Ry     beta= 0.70
     Davidson diagonalization with overlap
     ethr =  3.33E-09,  avg # of iterations =  2.0

     total cpu time spent up to now is        5.9 secs

     total energy              =     -15.61197273 Ry
     estimated scf accuracy    <          6.5E-10 Ry

     iteration #  9     ecut=    30.00 Ry     beta= 0.70
     Davidson diagonalization with overlap
     ethr =  8.12E-12,  avg # of iterations =  5.9

     total cpu time spent up to now is        6.0 secs

     total energy              =     -15.61197273 Ry
     estimated scf accuracy    <          5.1E-09 Ry

     iteration # 10     ecut=    30.00 Ry     beta= 0.70
     Davidson diagonalization with overlap
     ethr =  8.12E-12,  avg # of iterations =  3.0

     total cpu time spent up to now is        6.1 secs

     total energy              =     -15.61197273 Ry
     estimated scf accuracy    <          3.2E-10 Ry

     iteration # 11     ecut=    30.00 Ry     beta= 0.70
     Davidson diagonalization with overlap
     ethr =  4.03E-12,  avg # of iterations =  1.0

     total cpu time spent up to now is        6.1 secs

     total energy              =     -15.61197273 Ry
     estimated scf accuracy    <          1.1E-10 Ry

     iteration # 12     ecut=    30.00 Ry     beta= 0.70
     Davidson diagonalization with overlap
     ethr =  1.32E-12,  avg # of iterations =  1.2

     total cpu time spent up to now is        6.2 secs

     total energy              =     -15.61197273 Ry
     estimated scf accuracy    <          1.8E-10 Ry

     iteration # 13     ecut=    30.00 Ry     beta= 0.70
     Davidson diagonalization with overlap
     ethr =  1.32E-12,  avg # of iterations =  1.0

     total cpu time spent up to now is        6.2 secs

     End of self-consistent calculation

          k =-0.0902 0.0902 0.0902 (  1898 PWs)   bands (ev):

    -7.6798  -2.0657   0.6752   0.6752

          k =-0.2706 0.2706-0.0902 (  1914 PWs)   bands (ev):

    -7.4383  -2.9151   0.0638   0.5328

          k =-0.4510 0.4510-0.2706 (  1904 PWs)   bands (ev):

    -6.9231  -4.0916  -0.3409   0.1973

          k = 0.4510-0.4510 0.6313 (  1900 PWs)   bands (ev):

    -6.6476  -4.5586  -0.3914   0.0140

          k = 0.2706-0.2706 0.4510 (  1903 PWs)   bands (ev):

    -7.1083  -3.7254  -0.1015   0.0840

          k = 0.0902-0.0902 0.2706 (  1907 PWs)   bands (ev):

    -7.5567  -2.5365   0.3761   0.3847

          k =-0.0902 0.4510 0.0902 (  1916 PWs)   bands (ev):

    -7.3136  -3.2065  -0.0445   0.0178

          k =-0.2706 0.6313-0.0902 (  1909 PWs)   bands (ev):

    -6.8664  -4.0979  -0.6655  -0.2097

          k = 0.6313-0.2706 0.8117 (  1895 PWs)   bands (ev):

    -6.3925  -4.8122  -1.0506  -0.3030

          k = 0.4510-0.0902 0.6313 (  1902 PWs)   bands (ev):

    -6.6932  -4.3820  -0.9742  -0.0906

          k = 0.2706 0.0902 0.4510 (  1913 PWs)   bands (ev):

    -7.2055  -3.4774  -0.3292   0.1962

          k =-0.0902 0.8117 0.0902 (  1918 PWs)   bands (ev):

    -6.4971  -4.6411  -0.6652  -0.5348

          k = 0.8117-0.0902 0.9921 (  1896 PWs)   bands (ev):

    -5.9337  -5.3227  -1.0116  -0.6953

          k = 0.6313 0.0902 0.8117 (  1895 PWs)   bands (ev):

    -6.1761  -5.0468  -1.2485  -0.4346

          k = 0.4510 0.2706 0.6313 (  1912 PWs)   bands (ev):

    -6.6709  -4.4723  -0.7152  -0.0557

          k =-0.0902-0.9921 0.0902 (  1903 PWs)   bands (ev):

    -5.9480  -5.3195  -0.7977  -0.6539

          k =-0.2706-0.8117-0.0902 (  1899 PWs)   bands (ev):

    -6.4342  -4.7243  -0.8973  -0.5238

          k =-0.0902-0.6313 0.0902 (  1909 PWs)   bands (ev):

    -6.9570  -3.9268  -0.4076  -0.3044

          k =-0.2706 0.2706 0.2706 (  1910 PWs)   bands (ev):

    -7.3264  -3.2425   0.3497   0.3497

          k =-0.4510 0.4510 0.0902 (  1904 PWs)   bands (ev):

    -6.9948  -3.9015  -0.6911   0.2386

          k = 0.4510-0.4510 0.9921 (  1904 PWs)   bands (ev):

    -6.4541  -4.7137  -1.1884  -0.1362

          k = 0.2706-0.2706 0.8117 (  1903 PWs)   bands (ev):

    -6.4138  -4.7679  -1.0057  -0.3642

          k =-0.2706 0.6313 0.2706 (  1905 PWs)   bands (ev):

    -6.7961  -4.2502  -0.6207  -0.1718

          k = 0.6313-0.2706 1.1725 (  1894 PWs)   bands (ev):

    -6.3199  -4.8711  -1.1263  -0.4981

          k = 0.4510-0.0902 0.9921 (  1901 PWs)   bands (ev):

    -5.9189  -5.3264  -1.1467  -0.7913

          k =-0.2706-1.1725 0.2706 (  1894 PWs)   bands (ev):

    -6.0331  -5.2123  -1.2098  -0.4661

          k =-0.4510 0.4510 0.4510 (  1904 PWs)   bands (ev):

    -6.7962  -4.3471   0.1169   0.1169

          k = 0.4510-0.4510 1.3529 (  1906 PWs)   bands (ev):

    -6.5221  -4.6766  -0.8971  -0.0805

     highest occupied level (ev):     0.6752

!    total energy              =     -15.61197273 Ry
     estimated scf accuracy    <          5.8E-11 Ry

     The total energy is the sum of the following terms:
     one-electron contribution =       0.11322149 Ry
     hartree contribution      =       1.80138036 Ry
     xc contribution           =      -4.20042295 Ry
     ewald contribution        =     -13.32615163 Ry

     convergence has been achieved in  13 iterations


     Computing stress (Cartesian axis) and pressure

          total   stress  (Ry/bohr**3)                   (kbar)     P=     -129.40
  -0.00087966  -0.00000000   0.00000000         -129.40       -0.00        0.00
   0.00000000  -0.00087966  -0.00000000            0.00     -129.40       -0.00
  -0.00000000  -0.00000000  -0.00087966           -0.00       -0.00     -129.40

     Energy error            =      3.2E-02 Ry
     Gradient error          =      0.0E+00 Ry/Bohr
     Cell gradient error     =      1.3E+02 kbar

     number of scf cycles    =   5
     number of bfgs steps    =   4

     enthalpy           old  =     -15.5804687955 Ry
     enthalpy           new  =     -15.6119727284 Ry

     CASE: enthalpy          _new < enthalpy          _old


     WARNING: bfgs curvature condition failed, Theta= 0.363
     new trust radius        =       0.1557971622 bohr
ibrav =      2
 celldm(1) =     12.50209943
Input lattice vectors:
    -0.44650355     0.00000000     0.44650355
     0.00000000     0.44650355     0.44650355
    -0.44650355     0.44650355    -0.00000000
New lattice vectors in INITIAL alat:
    -0.44650355     0.00000000     0.44650355
     0.00000000     0.44650355     0.44650355
    -0.44650355     0.44650355     0.00000000
New lattice vectors in NEW alat (for information only):
    -0.50000000     0.00000000     0.50000000
     0.00000000     0.50000000     0.50000000
    -0.50000000     0.50000000     0.00000000
Discrepancy in bohr =     0.000000    0.000000    0.000000

Atomic positions rescaled with new alat:
Si            0.0000000000        0.0000000000        0.0000000000    0   0   0
Si            0.2500000000        0.2500000000        0.2500000000    0   0   0
     new conv_thr            =            1.0E-10 Ry

     new unit-cell volume =    488.52732 a.u.^3 (    72.39228 Ang^3 )
     density =      1.28845 g/cm^3

CELL_PARAMETERS (alat= 14.00000000)
  -0.446503551   0.000000000   0.446503551
   0.000000000   0.446503551   0.446503551
  -0.446503551   0.446503551   0.000000000

ATOMIC_POSITIONS (alat)
Si            0.0000000000        0.0000000000        0.0000000000    0   0   0
Si            0.2232517755        0.2232517755        0.2232517755    0   0   0



     Writing config-only to output data dir ./tmp/silicon.save/
     NEW-OLD atomic charge density approx. for the potential
     extrapolated charge    7.13939, renormalised to    8.00000

     total cpu time spent up to now is        6.3 secs

     Self-consistent Calculation

     iteration #  1     ecut=    30.00 Ry     beta= 0.70
     Davidson diagonalization with overlap
     ethr =  1.00E-06,  avg # of iterations =  8.7

     total cpu time spent up to now is        6.6 secs

     total energy              =     -15.64757834 Ry
     estimated scf accuracy    <       0.00951530 Ry

     iteration #  2     ecut=    30.00 Ry     beta= 0.70
     Davidson diagonalization with overlap
     ethr =  1.19E-04,  avg # of iterations =  3.0

     total cpu time spent up to now is        6.7 secs

     total energy              =     -15.66056916 Ry
     estimated scf accuracy    <       0.00413932 Ry

     iteration #  3     ecut=    30.00 Ry     beta= 0.70
     Davidson diagonalization with overlap
     ethr =  5.17E-05,  avg # of iterations =  1.1

     total cpu time spent up to now is        6.7 secs

     total energy              =     -15.66023280 Ry
     estimated scf accuracy    <       0.00094941 Ry

     iteration #  4     ecut=    30.00 Ry     beta= 0.70
     Davidson diagonalization with overlap
     ethr =  1.19E-05,  avg # of iterations =  2.0

     total cpu time spent up to now is        6.8 secs

     total energy              =     -15.66040514 Ry
     estimated scf accuracy    <       0.00009155 Ry

     iteration #  5     ecut=    30.00 Ry     beta= 0.70
     Davidson diagonalization with overlap
     ethr =  1.14E-06,  avg # of iterations =  1.9

     total cpu time spent up to now is        6.9 secs

     total energy              =     -15.66040397 Ry
     estimated scf accuracy    <       0.00001773 Ry

     iteration #  6     ecut=    30.00 Ry     beta= 0.70
     Davidson diagonalization with overlap
     ethr =  2.22E-07,  avg # of iterations =  3.1

     total cpu time spent up to now is        7.0 secs

     total energy              =     -15.66040939 Ry
     estimated scf accuracy    <       0.00000404 Ry

     iteration #  7     ecut=    30.00 Ry     beta= 0.70
     Davidson diagonalization with overlap
     ethr =  5.05E-08,  avg # of iterations =  1.9

     total cpu time spent up to now is        7.0 secs

     total energy              =     -15.66040954 Ry
     estimated scf accuracy    <       0.00000073 Ry

     iteration #  8     ecut=    30.00 Ry     beta= 0.70
     Davidson diagonalization with overlap
     ethr =  9.14E-09,  avg # of iterations =  2.2

     total cpu time spent up to now is        7.1 secs

     total energy              =     -15.66040944 Ry
     estimated scf accuracy    <       0.00000032 Ry

     iteration #  9     ecut=    30.00 Ry     beta= 0.70
     Davidson diagonalization with overlap
     ethr =  4.05E-09,  avg # of iterations =  2.0

     total cpu time spent up to now is        7.2 secs

     total energy              =     -15.66040950 Ry
     estimated scf accuracy    <          9.6E-09 Ry

     iteration # 10     ecut=    30.00 Ry     beta= 0.70
     Davidson diagonalization with overlap
     ethr =  1.21E-10,  avg # of iterations =  3.5

     total cpu time spent up to now is        7.3 secs

     total energy              =     -15.66040950 Ry
     estimated scf accuracy    <          1.5E-09 Ry

     iteration # 11     ecut=    30.00 Ry     beta= 0.70
     Davidson diagonalization with overlap
     ethr =  1.87E-11,  avg # of iterations =  2.4

     total cpu time spent up to now is        7.3 secs

     total energy              =     -15.66040950 Ry
     estimated scf accuracy    <          1.2E-10 Ry

     iteration # 12     ecut=    30.00 Ry     beta= 0.70
     Davidson diagonalization with overlap
     ethr =  1.47E-12,  avg # of iterations =  3.0

     total cpu time spent up to now is        7.4 secs

     End of self-consistent calculation

          k =-0.0933 0.0933 0.0933 (  1898 PWs)   bands (ev):

    -7.4640  -0.9801   1.2429   1.2429

          k =-0.2800 0.2800-0.0933 (  1914 PWs)   bands (ev):

    -7.1935  -2.0752   0.5564   1.0884

          k =-0.4666 0.4666-0.2800 (  1904 PWs)   bands (ev):

    -6.6104  -3.4814   0.1373   0.7162

          k = 0.4666-0.4666 0.6532 (  1900 PWs)   bands (ev):

    -6.2919  -4.0314   0.0984   0.5109

          k = 0.2800-0.2800 0.4666 (  1903 PWs)   bands (ev):

    -6.8214  -3.0489   0.4100   0.5834

          k = 0.0933-0.0933 0.2800 (  1907 PWs)   bands (ev):

    -7.3263  -1.5990   0.9135   0.9136

          k =-0.0933 0.4666 0.0933 (  1916 PWs)   bands (ev):

    -7.0543  -2.4026   0.4374   0.5038

          k =-0.2800 0.6532-0.0933 (  1909 PWs)   bands (ev):

    -6.5509  -3.4400  -0.2612   0.2550

          k = 0.6532-0.2800 0.8399 (  1895 PWs)   bands (ev):

    -6.0082  -4.2712  -0.6837   0.1490

          k = 0.4666-0.0933 0.6532 (  1902 PWs)   bands (ev):

    -6.3530  -3.7726  -0.6095   0.3899

          k = 0.2800 0.0933 0.4666 (  1913 PWs)   bands (ev):

    -6.9321  -2.7355   0.1163   0.7158

          k =-0.0933 0.8399 0.0933 (  1918 PWs)   bands (ev):

    -6.1383  -4.0455  -0.2586  -0.1072

          k = 0.8399-0.0933 1.0265 (  1896 PWs)   bands (ev):

    -5.5006  -4.8160  -0.6566  -0.2921

          k = 0.6532 0.0933 0.8399 (  1895 PWs)   bands (ev):

    -5.7662  -4.5165  -0.9256   0.0008

          k = 0.4666 0.2800 0.6532 (  1912 PWs)   bands (ev):

    -6.3234  -3.9067  -0.2871   0.4307

          k =-0.0933-1.0265 0.0933 (  1903 PWs)   bands (ev):

    -5.5205  -4.8125  -0.4064  -0.2382

          k =-0.2800-0.8399-0.0933 (  1899 PWs)   bands (ev):

    -6.0646  -4.1438  -0.5243  -0.1003

          k =-0.0933-0.6532 0.0933 (  1909 PWs)   bands (ev):

    -6.6547  -3.2336   0.0294   0.1469

          k =-0.2800 0.2800 0.2800 (  1910 PWs)   bands (ev):

    -7.0675  -2.4856   0.8815   0.8815

          k =-0.4666 0.4666 0.0933 (  1904 PWs)   bands (ev):

    -6.6939  -3.2308  -0.2900   0.7612

          k = 0.4666-0.4666 1.0265 (  1904 PWs)   bands (ev):

    -6.0805  -4.1485  -0.8536   0.3407

          k = 0.2800-0.2800 0.8399 (  1903 PWs)   bands (ev):

    -6.0372  -4.2071  -0.6415   0.0843

          k =-0.2800 0.6532 0.2800 (  1905 PWs)   bands (ev):

    -6.4690  -3.6360  -0.1889   0.2981

          k = 0.6532-0.2800 1.2131 (  1894 PWs)   bands (ev):

    -5.9314  -4.3154  -0.7846  -0.0754

          k = 0.4666-0.0933 1.0265 (  1901 PWs)   bands (ev):

    -5.4798  -4.8205  -0.8128  -0.4091

          k =-0.2800-1.2131 0.2800 (  1894 PWs)   bands (ev):

    -5.6068  -4.6992  -0.8837  -0.0287

          k =-0.4666 0.4666 0.4666 (  1904 PWs)   bands (ev):

    -6.4628  -3.7948   0.6269   0.6269

          k = 0.4666-0.4666 1.3998 (  1906 PWs)   bands (ev):

    -6.1523  -4.1377  -0.4971   0.4039

     highest occupied level (ev):     1.2429

!    total energy              =     -15.66040950 Ry
     estimated scf accuracy    <          4.9E-11 Ry

     The total energy is the sum of the following terms:
     one-electron contribution =       0.71768370 Ry
     hartree contribution      =       1.67786675 Ry
     xc contribution           =      -4.26807269 Ry
     ewald contribution        =     -13.78788726 Ry

     convergence has been achieved in  12 iterations


     Computing stress (Cartesian axis) and pressure

          total   stress  (Ry/bohr**3)                   (kbar)     P=     -141.60
  -0.00096259  -0.00000000   0.00000000         -141.60       -0.00        0.00
  -0.00000000  -0.00096259   0.00000000           -0.00     -141.60        0.00
   0.00000000   0.00000000  -0.00096259            0.00        0.00     -141.60

     Energy error            =      4.8E-02 Ry
     Gradient error          =      0.0E+00 Ry/Bohr
     Cell gradient error     =      1.4E+02 kbar

     number of scf cycles    =   6
     number of bfgs steps    =   5

     enthalpy           old  =     -15.6119727284 Ry
     enthalpy           new  =     -15.6604095040 Ry

     CASE: enthalpy          _new < enthalpy          _old


     WARNING: bfgs curvature condition failed, Theta= 0.578
     uphill step: resetting bfgs history

     new trust radius        =       0.1063788686 bohr
ibrav =      2
 celldm(1) =     12.20123982
Input lattice vectors:
    -0.43575856     0.00000000     0.43575856
    -0.00000000     0.43575856     0.43575856
    -0.43575856     0.43575856     0.00000000
New lattice vectors in INITIAL alat:
    -0.43575856     0.00000000     0.43575856
     0.00000000     0.43575856     0.43575856
    -0.43575856     0.43575856     0.00000000
New lattice vectors in NEW alat (for information only):
    -0.50000000     0.00000000     0.50000000
     0.00000000     0.50000000     0.50000000
    -0.50000000     0.50000000     0.00000000
Discrepancy in bohr =     0.000000    0.000000    0.000000

Atomic positions rescaled with new alat:
Si            0.0000000000        0.0000000000        0.0000000000    0   0   0
Si            0.2500000000        0.2500000000        0.2500000000    0   0   0
     new conv_thr            =            1.0E-10 Ry

     new unit-cell volume =    454.10041 a.u.^3 (    67.29074 Ang^3 )
     density =      1.38614 g/cm^3

CELL_PARAMETERS (alat= 14.00000000)
  -0.435758565   0.000000000   0.435758565
   0.000000000   0.435758565   0.435758565
  -0.435758565   0.435758565   0.000000000

ATOMIC_POSITIONS (alat)
Si            0.0000000000        0.0000000000        0.0000000000    0   0   0
Si            0.2178792824        0.2178792824        0.2178792824    0   0   0



     Writing config-only to output data dir ./tmp/silicon.save/
     NEW-OLD atomic charge density approx. for the potential
     extrapolated charge    7.39357, renormalised to    8.00000

     total cpu time spent up to now is        7.5 secs

     Self-consistent Calculation

     iteration #  1     ecut=    30.00 Ry     beta= 0.70
     Davidson diagonalization with overlap
     ethr =  1.00E-06,  avg # of iterations =  7.9

     total cpu time spent up to now is        7.7 secs

     total energy              =     -15.68825857 Ry
     estimated scf accuracy    <       0.00421276 Ry

     iteration #  2     ecut=    30.00 Ry     beta= 0.70
     Davidson diagonalization with overlap
     ethr =  5.27E-05,  avg # of iterations =  3.1

     total cpu time spent up to now is        7.8 secs

     total energy              =     -15.69450148 Ry
     estimated scf accuracy    <       0.00210249 Ry

     iteration #  3     ecut=    30.00 Ry     beta= 0.70
     Davidson diagonalization with overlap
     ethr =  2.63E-05,  avg # of iterations =  1.0

     total cpu time spent up to now is        7.8 secs

     total energy              =     -15.69430555 Ry
     estimated scf accuracy    <       0.00050674 Ry

     iteration #  4     ecut=    30.00 Ry     beta= 0.70
     Davidson diagonalization with overlap
     ethr =  6.33E-06,  avg # of iterations =  2.0

     total cpu time spent up to now is        7.9 secs

     total energy              =     -15.69439467 Ry
     estimated scf accuracy    <       0.00004422 Ry

     iteration #  5     ecut=    30.00 Ry     beta= 0.70
     Davidson diagonalization with overlap
     ethr =  5.53E-07,  avg # of iterations =  1.7

     total cpu time spent up to now is        8.0 secs

     total energy              =     -15.69439280 Ry
     estimated scf accuracy    <       0.00000980 Ry

     iteration #  6     ecut=    30.00 Ry     beta= 0.70
     Davidson diagonalization with overlap
     ethr =  1.23E-07,  avg # of iterations =  2.6

     total cpu time spent up to now is        8.1 secs

     total energy              =     -15.69439481 Ry
     estimated scf accuracy    <       0.00000359 Ry

     iteration #  7     ecut=    30.00 Ry     beta= 0.70
     Davidson diagonalization with overlap
     ethr =  4.48E-08,  avg # of iterations =  1.6

     total cpu time spent up to now is        8.1 secs

     total energy              =     -15.69439511 Ry
     estimated scf accuracy    <       0.00000013 Ry

     iteration #  8     ecut=    30.00 Ry     beta= 0.70
     Davidson diagonalization with overlap
     ethr =  1.62E-09,  avg # of iterations =  3.7

     total cpu time spent up to now is        8.3 secs

     total energy              =     -15.69439511 Ry
     estimated scf accuracy    <       0.00000014 Ry

     iteration #  9     ecut=    30.00 Ry     beta= 0.70
     Davidson diagonalization with overlap
     ethr =  1.62E-09,  avg # of iterations =  1.0

     total cpu time spent up to now is        8.3 secs

     total energy              =     -15.69439510 Ry
     estimated scf accuracy    <       0.00000002 Ry

     iteration # 10     ecut=    30.00 Ry     beta= 0.70
     Davidson diagonalization with overlap
     ethr =  2.71E-10,  avg # of iterations =  2.1

     total cpu time spent up to now is        8.4 secs

     total energy              =     -15.69439511 Ry
     estimated scf accuracy    <          8.2E-09 Ry

     iteration # 11     ecut=    30.00 Ry     beta= 0.70
     Davidson diagonalization with overlap
     ethr =  1.02E-10,  avg # of iterations =  1.5

     total cpu time spent up to now is        8.5 secs

     End of self-consistent calculation

          k =-0.0956 0.0956 0.0956 (  1898 PWs)   bands (ev):

    -7.3000  -0.1690   1.6853   1.6853

          k =-0.2869 0.2869-0.0956 (  1914 PWs)   bands (ev):

    -7.0076  -1.4617   0.9415   1.5223

          k =-0.4781 0.4781-0.2869 (  1904 PWs)   bands (ev):

    -6.3724  -3.0392   0.5139   1.1222

          k = 0.4781-0.4781 0.6693 (  1900 PWs)   bands (ev):

    -6.0198  -3.6524   0.4848   0.8999

          k = 0.2869-0.2869 0.4781 (  1903 PWs)   bands (ev):

    -6.6034  -2.5573   0.8134   0.9736

          k = 0.0956-0.0956 0.2869 (  1907 PWs)   bands (ev):

    -7.1514  -0.9091   1.3257   1.3346

          k =-0.0956 0.4781 0.0956 (  1916 PWs)   bands (ev):

    -6.8574  -1.8063   0.8147   0.8830

          k =-0.2869 0.6693-0.0956 (  1909 PWs)   bands (ev):

    -6.3115  -2.9500   0.0559   0.6184

          k = 0.6693-0.2869 0.8606 (  1895 PWs)   bands (ev):

    -5.7148  -3.8713  -0.3934   0.5022

          k = 0.4781-0.0956 0.6693 (  1902 PWs)   bands (ev):

    -6.0943  -3.3197  -0.3229   0.7656

          k = 0.2869 0.0956 0.4781 (  1913 PWs)   bands (ev):

    -6.7245  -2.1891   0.4654   1.1224

          k =-0.0956 0.8606 0.0956 (  1918 PWs)   bands (ev):

    -5.8665  -3.5972   0.0595   0.2277

          k = 0.8606-0.0956 1.0518 (  1896 PWs)   bands (ev):

    -5.1721  -4.4332  -0.3795   0.0232

          k = 0.6693 0.0956 0.8606 (  1895 PWs)   bands (ev):

    -5.4538  -4.1189  -0.6730   0.3411

          k = 0.4781 0.2869 0.6693 (  1912 PWs)   bands (ev):

    -6.0583  -3.4942   0.0527   0.8113

          k =-0.0956-1.0518 0.0956 (  1903 PWs)   bands (ev):

    -5.1970  -4.4296  -0.1003   0.0877

          k =-0.2869-0.8606-0.0956 (  1899 PWs)   bands (ev):

    -5.7841  -3.7074  -0.2324   0.2306

          k =-0.0956-0.6693 0.0956 (  1909 PWs)   bands (ev):

    -6.4254  -2.7149   0.3714   0.4998

          k =-0.2869 0.2869 0.2869 (  1910 PWs)   bands (ev):

    -6.8708  -1.9383   1.2967   1.2967

          k =-0.4781 0.4781 0.0956 (  1904 PWs)   bands (ev):

    -6.4654  -2.7362   0.0249   1.1698

          k = 0.4781-0.4781 1.0518 (  1904 PWs)   bands (ev):

    -5.7959  -3.7275  -0.5908   0.7138

          k = 0.2869-0.2869 0.8606 (  1903 PWs)   bands (ev):

    -5.7506  -3.7888  -0.3550   0.4354

          k =-0.2869 0.6693 0.2869 (  1905 PWs)   bands (ev):

    -6.2202  -3.1841   0.1531   0.6656

          k = 0.6693-0.2869 1.2430 (  1894 PWs)   bands (ev):

    -5.6358  -3.8986  -0.5169   0.2544

          k = 0.4781-0.0956 1.0518 (  1901 PWs)   bands (ev):

    -5.1458  -4.4382  -0.5524  -0.1112

          k =-0.2869-1.2430 0.2869 (  1894 PWs)   bands (ev):

    -5.2822  -4.3134  -0.6291   0.3139

          k =-0.4781 0.4781 0.4781 (  1904 PWs)   bands (ev):

    -6.2083  -3.3983   1.0261   1.0261

          k = 0.4781-0.4781 1.4343 (  1906 PWs)   bands (ev):

    -5.8697  -3.7442  -0.1794   0.7830

     highest occupied level (ev):     1.6853

!    total energy              =     -15.69439511 Ry
     estimated scf accuracy    <          9.2E-11 Ry

     The total energy is the sum of the following terms:
     one-electron contribution =       1.16028093 Ry
     hartree contribution      =       1.59389518 Ry
     xc contribution           =      -4.32070060 Ry
     ewald contribution        =     -14.12787061 Ry

     convergence has been achieved in  11 iterations


     Computing stress (Cartesian axis) and pressure

          total   stress  (Ry/bohr**3)                   (kbar)     P=     -148.59
  -0.00101009  -0.00000000  -0.00000000         -148.59       -0.00       -0.00
  -0.00000000  -0.00101009  -0.00000000           -0.00     -148.59       -0.00
  -0.00000000  -0.00000000  -0.00101009           -0.00       -0.00     -148.59

     Energy error            =      3.4E-02 Ry
     Gradient error          =      0.0E+00 Ry/Bohr
     Cell gradient error     =      1.5E+02 kbar

     number of scf cycles    =   7
     number of bfgs steps    =   6

     enthalpy           old  =     -15.6604095040 Ry
     enthalpy           new  =     -15.6943951085 Ry

     CASE: enthalpy          _new < enthalpy          _old


     WARNING: bfgs curvature condition failed, Theta= 0.800
     new trust radius        =       0.1576366270 bohr
ibrav =      2
 celldm(1) =     11.74995040
Input lattice vectors:
    -0.41964109    -0.00000000     0.41964109
    -0.00000000     0.41964109     0.41964109
    -0.41964109     0.41964109    -0.00000000
New lattice vectors in INITIAL alat:
    -0.41964109     0.00000000     0.41964109
     0.00000000     0.41964109     0.41964109
    -0.41964109     0.41964109     0.00000000
New lattice vectors in NEW alat (for information only):
    -0.50000000     0.00000000     0.50000000
     0.00000000     0.50000000     0.50000000
    -0.50000000     0.50000000     0.00000000
Discrepancy in bohr =     0.000000    0.000000    0.000000

Atomic positions rescaled with new alat:
Si            0.0000000000        0.0000000000        0.0000000000    0   0   0
Si            0.2500000000        0.2500000000        0.2500000000    0   0   0
     new conv_thr            =            1.0E-10 Ry

     new unit-cell volume =    405.55346 a.u.^3 (    60.09682 Ang^3 )
     density =      1.55206 g/cm^3

CELL_PARAMETERS (alat= 14.00000000)
  -0.419641086   0.000000000   0.419641086
   0.000000000   0.419641086   0.419641086
  -0.419641086   0.419641086   0.000000000

ATOMIC_POSITIONS (alat)
Si            0.0000000000        0.0000000000        0.0000000000    0   0   0
Si            0.2098205428        0.2098205428        0.2098205428    0   0   0



     Writing config-only to output data dir ./tmp/silicon.save/
     NEW-OLD atomic charge density approx. for the potential
     extrapolated charge    7.04248, renormalised to    8.00000

     total cpu time spent up to now is        8.6 secs

     Self-consistent Calculation

     iteration #  1     ecut=    30.00 Ry     beta= 0.70
     Davidson diagonalization with overlap
     ethr =  1.00E-06,  avg # of iterations =  8.6

     total cpu time spent up to now is        8.9 secs

     total energy              =     -15.73052596 Ry
     estimated scf accuracy    <       0.01056469 Ry

     iteration #  2     ecut=    30.00 Ry     beta= 0.70
     Davidson diagonalization with overlap
     ethr =  1.32E-04,  avg # of iterations =  3.0

     total cpu time spent up to now is        9.0 secs

     total energy              =     -15.74472871 Ry
     estimated scf accuracy    <       0.00454255 Ry

     iteration #  3     ecut=    30.00 Ry     beta= 0.70
     Davidson diagonalization with overlap
     ethr =  5.68E-05,  avg # of iterations =  1.0

     total cpu time spent up to now is        9.1 secs

     total energy              =     -15.74435227 Ry
     estimated scf accuracy    <       0.00103444 Ry

     iteration #  4     ecut=    30.00 Ry     beta= 0.70
     Davidson diagonalization with overlap
     ethr =  1.29E-05,  avg # of iterations =  2.0

     total cpu time spent up to now is        9.2 secs

     total energy              =     -15.74452655 Ry
     estimated scf accuracy    <       0.00007426 Ry

     iteration #  5     ecut=    30.00 Ry     beta= 0.70
     Davidson diagonalization with overlap
     ethr =  9.28E-07,  avg # of iterations =  1.8

     total cpu time spent up to now is        9.2 secs

     total energy              =     -15.74452624 Ry
     estimated scf accuracy    <       0.00001286 Ry

     iteration #  6     ecut=    30.00 Ry     beta= 0.70
     Davidson diagonalization with overlap
     ethr =  1.61E-07,  avg # of iterations =  2.6

     total cpu time spent up to now is        9.3 secs

     total energy              =     -15.74452910 Ry
     estimated scf accuracy    <       0.00000007 Ry

     iteration #  7     ecut=    30.00 Ry     beta= 0.70
     Davidson diagonalization with overlap
     ethr =  9.03E-10,  avg # of iterations =  5.6

     total cpu time spent up to now is        9.5 secs

     total energy              =     -15.74452930 Ry
     estimated scf accuracy    <       0.00000004 Ry

     iteration #  8     ecut=    30.00 Ry     beta= 0.70
     Davidson diagonalization with overlap
     ethr =  5.13E-10,  avg # of iterations =  1.1

     total cpu time spent up to now is        9.5 secs

     total energy              =     -15.74452930 Ry
     estimated scf accuracy    <          7.8E-09 Ry

     iteration #  9     ecut=    30.00 Ry     beta= 0.70
     Davidson diagonalization with overlap
     ethr =  9.79E-11,  avg # of iterations =  1.1

     total cpu time spent up to now is        9.6 secs

     total energy              =     -15.74452930 Ry
     estimated scf accuracy    <          3.8E-09 Ry

     iteration # 10     ecut=    30.00 Ry     beta= 0.70
     Davidson diagonalization with overlap
     ethr =  4.70E-11,  avg # of iterations =  2.1

     total cpu time spent up to now is        9.7 secs

     total energy              =     -15.74452930 Ry
     estimated scf accuracy    <          1.3E-09 Ry

     iteration # 11     ecut=    30.00 Ry     beta= 0.70
     Davidson diagonalization with overlap
     ethr =  1.68E-11,  avg # of iterations =  2.0

     total cpu time spent up to now is        9.8 secs

     End of self-consistent calculation

          k =-0.0993 0.0993 0.0993 (  1898 PWs)   bands (ev):

    -7.0273   1.0894   2.4351   2.4351

          k =-0.2979 0.2979-0.0993 (  1914 PWs)   bands (ev):

    -6.6991  -0.5009   1.5964   2.2592

          k =-0.4965 0.4965-0.2979 (  1904 PWs)   bands (ev):

    -5.9773  -2.3459   1.1582   1.8131

          k = 0.4965-0.4965 0.6950 (  1900 PWs)   bands (ev):

    -5.5654  -3.0624   1.1461   1.5622

          k = 0.2979-0.2979 0.4965 (  1903 PWs)   bands (ev):

    -6.2418  -1.7857   1.5042   1.6366

          k = 0.0993-0.0993 0.2979 (  1907 PWs)   bands (ev):

    -6.8607   0.1717   2.0239   2.0529

          k =-0.0993 0.4965 0.0993 (  1916 PWs)   bands (ev):

    -6.5311  -0.8520   1.4577   1.5267

          k =-0.2979 0.6950-0.0993 (  1909 PWs)   bands (ev):

    -5.9150  -2.1582   0.5973   1.2366

          k = 0.6950-0.2979 0.8936 (  1895 PWs)   bands (ev):

    -5.2262  -3.2306   0.1077   1.1024

          k = 0.4965-0.0993 0.6950 (  1902 PWs)   bands (ev):

    -5.6652  -2.5895   0.1675   1.4046

          k = 0.2979 0.0993 0.4965 (  1913 PWs)   bands (ev):

    -6.3804  -1.3204   1.0607   1.8149

          k =-0.0993 0.8936 0.0993 (  1918 PWs)   bands (ev):

    -5.4175  -2.8633   0.6008   0.7985

          k = 0.8936-0.0993 1.0922 (  1896 PWs)   bands (ev):

    -4.6291  -3.8031   0.0909   0.5596

          k = 0.6950 0.0993 0.8936 (  1895 PWs)   bands (ev):

    -4.9342  -3.4706  -0.2428   0.9196

          k = 0.4965 0.2979 0.6950 (  1912 PWs)   bands (ev):

    -5.6174  -2.8430   0.6393   1.4588

          k =-0.0993-1.0922 0.0993 (  1903 PWs)   bands (ev):

    -4.6637  -3.7999   0.4208   0.6436

          k =-0.2979-0.8936-0.0993 (  1899 PWs)   bands (ev):

    -5.3200  -2.9937   0.2648   0.7929

          k =-0.0993-0.6950 0.0993 (  1909 PWs)   bands (ev):

    -6.0459  -1.8727   0.9534   1.1001

          k =-0.2979 0.2979 0.2979 (  1910 PWs)   bands (ev):
[...]

     total energy              =     -15.85362586 Ry
     estimated scf accuracy    <       0.00000019 Ry

     iteration #  4     ecut=    30.00 Ry     beta= 0.70
     Davidson diagonalization with overlap
     ethr =  2.43E-09,  avg # of iterations =  2.0

     total cpu time spent up to now is       15.0 secs

     total energy              =     -15.85362589 Ry
     estimated scf accuracy    <       0.00000002 Ry

     iteration #  5     ecut=    30.00 Ry     beta= 0.70
     Davidson diagonalization with overlap
     ethr =  2.62E-10,  avg # of iterations =  1.1

     total cpu time spent up to now is       15.0 secs

     total energy              =     -15.85362589 Ry
     estimated scf accuracy    <          5.4E-09 Ry

     iteration #  6     ecut=    30.00 Ry     beta= 0.70
     Davidson diagonalization with overlap
     ethr =  6.73E-11,  avg # of iterations =  2.0

     total cpu time spent up to now is       15.1 secs

     total energy              =     -15.85362589 Ry
     estimated scf accuracy    <          3.2E-10 Ry

     iteration #  7     ecut=    30.00 Ry     beta= 0.70
     Davidson diagonalization with overlap
     ethr =  4.04E-12,  avg # of iterations =  1.6

     total cpu time spent up to now is       15.2 secs

     End of self-consistent calculation

          k =-0.1143 0.1143 0.1143 (  1898 PWs)   bands (ev):

    -5.7383   5.3486   6.0604   6.0604

          k =-0.3429 0.3429-0.1143 (  1914 PWs)   bands (ev):

    -5.2530   3.2577   4.7973   5.8508

          k =-0.5715 0.5715-0.3429 (  1904 PWs)   bands (ev):

    -4.1353   0.4452   4.3332   5.2031

          k = 0.5715-0.5715 0.8001 (  1900 PWs)   bands (ev):

    -3.4095  -0.7332   4.4063   4.8134

          k = 0.3429-0.3429 0.5715 (  1903 PWs)   bands (ev):

    -4.5581   1.3093   4.8706   4.9150

          k = 0.1143-0.1143 0.3429 (  1907 PWs)   bands (ev):

    -5.4934   4.2820   5.3993   5.5992

          k =-0.1143 0.5715 0.1143 (  1916 PWs)   bands (ev):

    -5.0078   3.0927   4.6461   4.6546

          k =-0.3429 0.8001-0.1143 (  1909 PWs)   bands (ev):

    -4.0790   1.2350   3.2886   4.2601

          k = 0.8001-0.3429 1.0287 (  1895 PWs)   bands (ev):

    -2.9261  -0.5700   2.6830   4.0241

          k = 0.5715-0.1143 0.8001 (  1902 PWs)   bands (ev):

    -3.6733   0.5238   2.6274   4.5258

          k = 0.3429 0.1143 0.5715 (  1913 PWs)   bands (ev):

    -4.7774   2.2315   4.0034   5.2149

          k =-0.1143 1.0287 0.1143 (  1918 PWs)   bands (ev):

    -3.3560   0.4187   3.2490   3.6058

          k = 1.0287-0.1143 1.2573 (  1896 PWs)   bands (ev):

    -2.1322  -0.9392   2.3728   3.1801

          k = 0.8001 0.1143 1.0287 (  1895 PWs)   bands (ev):

    -2.4993  -0.6182   1.8782   3.7406

          k = 0.5715 0.3429 0.8001 (  1912 PWs)   bands (ev):

    -3.5533  -0.2052   3.6112   4.6283

          k =-0.1143-1.2573 0.1143 (  1903 PWs)   bands (ev):

    -2.2312  -0.9499   2.9721   3.3863

          k =-0.3429-1.0287-0.1143 (  1899 PWs)   bands (ev):

    -3.1809   0.1882   2.7105   3.5287

          k =-0.1143-0.8001 0.1143 (  1909 PWs)   bands (ev):

    -4.2901   1.7957   3.8106   4.0363

          k =-0.3429 0.3429 0.3429 (  1910 PWs)   bands (ev):

    -5.0187   2.2561   5.4374   5.4374

          k =-0.5715 0.5715 0.1143 (  1904 PWs)   bands (ev):

    -4.3254   1.3324   3.2518   5.2675

          k = 0.5715-0.5715 1.2573 (  1904 PWs)   bands (ev):

    -3.1157  -0.1178   2.1102   4.4621

          k = 0.3429-0.3429 1.0287 (  1903 PWs)   bands (ev):

    -3.0650  -0.1975   2.6084   3.9679

          k =-0.3429 0.8001 0.3429 (  1905 PWs)   bands (ev):

    -3.8913   0.5046   3.7437   4.3490

          k = 0.8001-0.3429 1.4859 (  1894 PWs)   bands (ev):

    -2.8658  -0.2161   2.2108   3.5210

          k = 0.5715-0.1143 1.2573 (  1901 PWs)   bands (ev):

    -2.0158  -0.9470   2.0306   2.8308

          k =-0.3429-1.4859 0.3429 (  1894 PWs)   bands (ev):

    -2.2289  -0.8632   1.9009   3.7692

          k =-0.5715 0.5715 0.5715 (  1904 PWs)   bands (ev):

    -3.7934  -0.3218   5.0450   5.0450

          k = 0.5715-0.5715 1.7145 (  1906 PWs)   bands (ev):

    -3.1707  -0.6185   3.1739   4.5925

     highest occupied level (ev):     6.0604

!    total energy              =     -15.85362589 Ry
     estimated scf accuracy    <          1.6E-11 Ry

     The total energy is the sum of the following terms:
     one-electron contribution =       4.76840239 Ry
     hartree contribution      =       1.08041533 Ry
     xc contribution           =      -4.81457438 Ry
     ewald contribution        =     -16.88786923 Ry

     convergence has been achieved in   7 iterations


     Computing stress (Cartesian axis) and pressure

          total   stress  (Ry/bohr**3)                   (kbar)     P=        0.05
   0.00000032  -0.00000000  -0.00000000            0.05       -0.00       -0.00
  -0.00000000   0.00000032   0.00000000           -0.00        0.05        0.00
  -0.00000000   0.00000000   0.00000032           -0.00        0.00        0.05

     Energy error            =      1.8E-06 Ry
     Gradient error          =      0.0E+00 Ry/Bohr
     Cell gradient error     =      4.7E-02 kbar
ibrav =      2
 celldm(1) =     10.20718097
Input lattice vectors:
    -0.36454218     0.00000000     0.36454218
     0.00000000     0.36454218     0.36454218
    -0.36454218     0.36454218     0.00000000
New lattice vectors in INITIAL alat:
    -0.36454218     0.00000000     0.36454218
     0.00000000     0.36454218     0.36454218
    -0.36454218     0.36454218     0.00000000
New lattice vectors in NEW alat (for information only):
    -0.50000000     0.00000000     0.50000000
     0.00000000     0.50000000     0.50000000
    -0.50000000     0.50000000     0.00000000
Discrepancy in bohr =     0.000000    0.000000    0.000000

Atomic positions rescaled with new alat:
Si            0.0000000000        0.0000000000        0.0000000000    0   0   0
Si            0.2500000000        0.2500000000        0.2500000000    0   0   0

     bfgs converged in  13 scf cycles and  12 bfgs steps
     (criteria: energy <  1.0E-05 Ry, force <  1.0E-04Ry/Bohr, cell <  5.0E-01kbar)

     End of BFGS Geometry Optimization

     Final enthalpy           =     -15.8536258884 Ry

     File ./tmp/silicon.bfgs deleted, as requested
Begin final coordinates
     new unit-cell volume =    265.86273 a.u.^3 (    39.39679 Ang^3 )
     density =      2.36756 g/cm^3

CELL_PARAMETERS (alat= 14.00000000)
  -0.364542177   0.000000000   0.364542177
   0.000000000   0.364542177   0.364542177
  -0.364542177   0.364542177   0.000000000

ATOMIC_POSITIONS (alat)
Si            0.0000000000        0.0000000000        0.0000000000    0   0   0
Si            0.1822710887        0.1822710887        0.1822710887    0   0   0
End final coordinates



     Writing config-only to output data dir ./tmp/silicon.save/

     Final scf calculation at the relaxed structure.
     The G-vectors are recalculated for the final unit cell
     Results may differ from those at the preceding step.

     Parallelization info
     --------------------
     sticks:   dense  smooth     PW     G-vecs:    dense   smooth      PW
     Min         108     108     37                 1489     1489     284
     Max         109     109     38                 1492     1492     285
     Sum         433     433    151                 5961     5961    1139

     Using Slab Decomposition



     bravais-lattice index     =            2
     lattice parameter (alat)  =      14.0000  a.u.
     unit-cell volume          =     265.8627 (a.u.)^3
     number of atoms/cell      =            2
     number of atomic types    =            1
     number of electrons       =         8.00
     number of Kohn-Sham states=            4
     kinetic-energy cutoff     =      30.0000  Ry
     charge density cutoff     =     120.0000  Ry
     scf convergence threshold =      1.0E-10
     mixing beta               =       0.7000
     number of iterations used =            8  plain     mixing
     press convergence thresh. =      5.0E-01
     Exchange-correlation= SLA  PZ   NOGX NOGC
                           (   1   1   0   0   0   0   0)

     celldm(1)=  14.000000  celldm(2)=   0.000000  celldm(3)=   0.000000
     celldm(4)=   0.000000  celldm(5)=   0.000000  celldm(6)=   0.000000

     crystal axes: (cart. coord. in units of alat)
               a(1) = (  -0.364542   0.000000   0.364542 )  
               a(2) = (   0.000000   0.364542   0.364542 )  
               a(3) = (  -0.364542   0.364542   0.000000 )  

     reciprocal axes: (cart. coord. in units 2 pi/alat)
               b(1) = ( -1.371583 -1.371583  1.371583 )  
               b(2) = (  1.371583  1.371583  1.371583 )  
               b(3) = ( -1.371583  1.371583 -1.371583 )  


     PseudoPot. # 1 for Si read from file:
     ./pseudos/Si.pz-vbc.UPF
     MD5 check sum: 9f25e6ff280f3123e9b3a84715b2e9c9
     Pseudo is Norm-conserving, Zval =  4.0
     Generated by new atomic code, or converted to UPF format
     Using radial grid of  431 points,  2 beta functions with: 
                l(1) =   0
                l(2) =   1

     atomic species   valence    mass     pseudopotential
        Si             4.00    28.08550     Si( 1.00)

     48 Sym. Ops., with inversion, found (24 have fractional translation)



   Cartesian axes

     site n.     atom                  positions (alat units)
         1           Si  tau(   1) = (   0.0000000   0.0000000   0.0000000  )
         2           Si  tau(   2) = (   0.1822711   0.1822711   0.1822711  )

     number of k points=    28
                       cart. coord. in units 2pi/alat
        k(    1) = (  -0.1142986   0.1142986   0.1142986), wk =   0.0185185
        k(    2) = (  -0.3428959   0.3428959  -0.1142986), wk =   0.0555556
        k(    3) = (  -0.5714931   0.5714931  -0.3428959), wk =   0.0555556
        k(    4) = (   0.5714931  -0.5714931   0.8000903), wk =   0.0555556
        k(    5) = (   0.3428959  -0.3428959   0.5714931), wk =   0.0555556
        k(    6) = (   0.1142986  -0.1142986   0.3428959), wk =   0.0555556
        k(    7) = (  -0.1142986   0.5714931   0.1142986), wk =   0.0555556
        k(    8) = (  -0.3428959   0.8000903  -0.1142986), wk =   0.1111111
        k(    9) = (   0.8000903  -0.3428959   1.0286876), wk =   0.1111111
        k(   10) = (   0.5714931  -0.1142986   0.8000903), wk =   0.1111111
        k(   11) = (   0.3428959   0.1142986   0.5714931), wk =   0.1111111
        k(   12) = (  -0.1142986   1.0286876   0.1142986), wk =   0.0555556
        k(   13) = (   1.0286876  -0.1142986   1.2572848), wk =   0.1111111
        k(   14) = (   0.8000903   0.1142986   1.0286876), wk =   0.1111111
        k(   15) = (   0.5714931   0.3428959   0.8000903), wk =   0.1111111
        k(   16) = (  -0.1142986  -1.2572848   0.1142986), wk =   0.0555556
        k(   17) = (  -0.3428959  -1.0286876  -0.1142986), wk =   0.1111111
        k(   18) = (  -0.1142986  -0.8000903   0.1142986), wk =   0.0555556
        k(   19) = (  -0.3428959   0.3428959   0.3428959), wk =   0.0185185
        k(   20) = (  -0.5714931   0.5714931   0.1142986), wk =   0.0555556
        k(   21) = (   0.5714931  -0.5714931   1.2572848), wk =   0.0555556
        k(   22) = (   0.3428959  -0.3428959   1.0286876), wk =   0.0555556
        k(   23) = (  -0.3428959   0.8000903   0.3428959), wk =   0.0555556
        k(   24) = (   0.8000903  -0.3428959   1.4858820), wk =   0.1111111
        k(   25) = (   0.5714931  -0.1142986   1.2572848), wk =   0.1111111
        k(   26) = (  -0.3428959  -1.4858820   0.3428959), wk =   0.0555556
        k(   27) = (  -0.5714931   0.5714931   0.5714931), wk =   0.0185185
        k(   28) = (   0.5714931  -0.5714931   1.7144793), wk =   0.0555556

     Dense  grid:     5961 G-vectors     FFT dimensions: (  32,  32,  32)

     Estimated max dynamical RAM per process >       1.76 MB

     Estimated total dynamical RAM >       7.04 MB

     Initial potential from superposition of free atoms

     starting charge       7.9990, renormalised to       8.0000
     Starting wfcs are    8 randomized atomic wfcs

     total cpu time spent up to now is       15.3 secs

     Self-consistent Calculation

     iteration #  1     ecut=    30.00 Ry     beta= 0.70
     Davidson diagonalization with overlap
     ethr =  1.00E-06,  avg # of iterations =  8.1

     total cpu time spent up to now is       15.4 secs

     total energy              =     -15.84857045 Ry
     estimated scf accuracy    <       0.06274499 Ry

     iteration #  2     ecut=    30.00 Ry     beta= 0.70
     Davidson diagonalization with overlap
     ethr =  7.84E-04,  avg # of iterations =  1.0

     total cpu time spent up to now is       15.4 secs

     total energy              =     -15.85187770 Ry
     estimated scf accuracy    <       0.00209825 Ry

     iteration #  3     ecut=    30.00 Ry     beta= 0.70
     Davidson diagonalization with overlap
     ethr =  2.62E-05,  avg # of iterations =  2.2

     total cpu time spent up to now is       15.5 secs

     total energy              =     -15.85236048 Ry
     estimated scf accuracy    <       0.00005242 Ry

     iteration #  4     ecut=    30.00 Ry     beta= 0.70
     Davidson diagonalization with overlap
     ethr =  6.55E-07,  avg # of iterations =  3.5

     total cpu time spent up to now is       15.5 secs

     total energy              =     -15.85238615 Ry
     estimated scf accuracy    <       0.00000040 Ry

     iteration #  5     ecut=    30.00 Ry     beta= 0.70
     Davidson diagonalization with overlap
     ethr =  5.02E-09,  avg # of iterations =  4.6

     total cpu time spent up to now is       15.6 secs

     total energy              =     -15.85238688 Ry
     estimated scf accuracy    <       0.00000003 Ry

     iteration #  6     ecut=    30.00 Ry     beta= 0.70
     Davidson diagonalization with overlap
     ethr =  3.96E-10,  avg # of iterations =  2.3

     total cpu time spent up to now is       15.6 secs

     End of self-consistent calculation

          k =-0.1143 0.1143 0.1143 (   731 PWs)   bands (ev):

    -5.7369   5.3503   6.0611   6.0611

          k =-0.3429 0.3429-0.1143 (   743 PWs)   bands (ev):

    -5.2515   3.2603   4.7981   5.8512

          k =-0.5715 0.5715-0.3429 (   745 PWs)   bands (ev):

    -4.1336   0.4471   4.3342   5.2032

          k = 0.5715-0.5715 0.8001 (   743 PWs)   bands (ev):

    -3.4074  -0.7317   4.4072   4.8135

          k = 0.3429-0.3429 0.5715 (   746 PWs)   bands (ev):

    -4.5565   1.3113   4.8709   4.9161

          k = 0.1143-0.1143 0.3429 (   734 PWs)   bands (ev):

    -5.4920   4.2845   5.3998   5.6003

          k =-0.1143 0.5715 0.1143 (   736 PWs)   bands (ev):

    -5.0063   3.0959   4.6472   4.6550

          k =-0.3429 0.8001-0.1143 (   739 PWs)   bands (ev):

    -4.0773   1.2377   3.2894   4.2605

          k = 0.8001-0.3429 1.0287 (   736 PWs)   bands (ev):

    -2.9239  -0.5681   2.6841   4.0243

          k = 0.5715-0.1143 0.8001 (   739 PWs)   bands (ev):

    -3.6714   0.5262   2.6283   4.5262

          k = 0.3429 0.1143 0.5715 (   737 PWs)   bands (ev):

    -4.7758   2.2341   4.0044   5.2155

          k =-0.1143 1.0287 0.1143 (   738 PWs)   bands (ev):

    -3.3542   0.4216   3.2492   3.6059

          k = 1.0287-0.1143 1.2573 (   737 PWs)   bands (ev):

    -2.1299  -0.9367   2.3731   3.1803

          k = 0.8001 0.1143 1.0287 (   732 PWs)   bands (ev):

    -2.4970  -0.6158   1.8787   3.7409

          k = 0.5715 0.3429 0.8001 (   739 PWs)   bands (ev):

    -3.5514  -0.2034   3.6124   4.6286

          k =-0.1143-1.2573 0.1143 (   736 PWs)   bands (ev):

    -2.2290  -0.9474   2.9723   3.3862

          k =-0.3429-1.0287-0.1143 (   740 PWs)   bands (ev):

    -3.1790   0.1910   2.7111   3.5289

          k =-0.1143-0.8001 0.1143 (   732 PWs)   bands (ev):

    -4.2885   1.7988   3.8112   4.0365

          k =-0.3429 0.3429 0.3429 (   745 PWs)   bands (ev):

    -5.0172   2.2583   5.4378   5.4378

          k =-0.5715 0.5715 0.1143 (   740 PWs)   bands (ev):

    -4.3238   1.3348   3.2528   5.2678

          k = 0.5715-0.5715 1.2573 (   734 PWs)   bands (ev):

    -3.1137  -0.1155   2.1109   4.4623

          k = 0.3429-0.3429 1.0287 (   735 PWs)   bands (ev):

    -3.0630  -0.1952   2.6093   3.9680

          k =-0.3429 0.8001 0.3429 (   738 PWs)   bands (ev):

    -3.8895   0.5066   3.7451   4.3492

          k = 0.8001-0.3429 1.4859 (   736 PWs)   bands (ev):

    -2.8637  -0.2135   2.2114   3.5214

          k = 0.5715-0.1143 1.2573 (   732 PWs)   bands (ev):

    -2.0134  -0.9444   2.0309   2.8311

          k =-0.3429-1.4859 0.3429 (   732 PWs)   bands (ev):

    -2.2266  -0.8607   1.9012   3.7693

          k =-0.5715 0.5715 0.5715 (   739 PWs)   bands (ev):

    -3.7915  -0.3203   5.0451   5.0451

          k = 0.5715-0.5715 1.7145 (   741 PWs)   bands (ev):

    -3.1686  -0.6168   3.1752   4.5926

     highest occupied level (ev):     6.0611

!    total energy              =     -15.85238688 Ry
     estimated scf accuracy    <          3.8E-11 Ry

     The total energy is the sum of the following terms:
     one-electron contribution =       4.77013278 Ry
     hartree contribution      =       1.08000360 Ry
     xc contribution           =      -4.81465400 Ry
     ewald contribution        =     -16.88786926 Ry

     convergence has been achieved in   6 iterations


     Computing stress (Cartesian axis) and pressure

          total   stress  (Ry/bohr**3)                   (kbar)     P=       -1.13
  -0.00000769   0.00000000  -0.00000000           -1.13        0.00       -0.00
   0.00000000  -0.00000769  -0.00000000            0.00       -1.13       -0.00
  -0.00000000  -0.00000000  -0.00000769           -0.00       -0.00       -1.13


     Writing all to output data dir ./tmp/silicon.save/

     init_run     :      0.11s CPU      0.14s WALL (       2 calls)
     electrons    :     13.60s CPU     14.54s WALL (      14 calls)
     update_pot   :      0.25s CPU      0.25s WALL (      12 calls)
     stress       :      0.55s CPU      0.58s WALL (      14 calls)

     Called by init_run:
     wfcinit      :      0.07s CPU      0.09s WALL (       2 calls)
     potinit      :      0.01s CPU      0.01s WALL (       2 calls)
     hinit0       :      0.02s CPU      0.03s WALL (       2 calls)

     Called by electrons:
     c_bands      :     11.82s CPU     12.64s WALL (     151 calls)
     sum_band     :      1.64s CPU      1.72s WALL (     151 calls)
     v_of_rho     :      0.06s CPU      0.07s WALL (     163 calls)
     mix_rho      :      0.06s CPU      0.08s WALL (     151 calls)

     Called by c_bands:
     init_us_2    :      0.25s CPU      0.26s WALL (    8904 calls)
     init_us_2:cp :      0.25s CPU      0.26s WALL (    8904 calls)
     cegterg      :     11.57s CPU     12.37s WALL (    4228 calls)

     Called by *egterg:
     cdiaghg      :      0.30s CPU      0.32s WALL (   15846 calls)
     h_psi        :      9.74s CPU     10.31s WALL (   16294 calls)
     g_psi        :      0.03s CPU      0.03s WALL (   12010 calls)

     Called by h_psi:
     h_psi:calbec :      0.40s CPU      0.49s WALL (   16294 calls)
     vloc_psi     :      9.06s CPU      9.48s WALL (   16294 calls)
     add_vuspsi   :      0.24s CPU      0.28s WALL (   16294 calls)

     General routines
     calbec       :      0.43s CPU      0.52s WALL (   16686 calls)
     fft          :      0.07s CPU      0.07s WALL (     531 calls)
     ffts         :      0.02s CPU      0.02s WALL (     151 calls)
     fftw         :      9.71s CPU     10.15s WALL (  126126 calls)

     Parallel routines

     PWSCF        :     14.57s CPU     15.65s WALL


   This run was terminated on:  17:59:44  14Jan2025            

=------------------------------------------------------------------------------=
   JOB DONE.
=------------------------------------------------------------------------------=
