
     Program PWSCF v.7.3.1 starts on  3Feb2025 at 13:30:53 

     This program is part of the open-source Quantum ESPRESSO suite
     for quantum simulation of materials; please cite
         "P. Giannozzi et al., J. Phys.:Condens. Matter 21 395502 (2009);
         "P. Giannozzi et al., J. Phys.:Condens. Matter 29 465901 (2017);
         "P. Giannozzi et al., J. Chem. Phys. 152 154105 (2020);
          URL http://www.quantum-espresso.org", 
     in publications or presentations arising from this work. More details at
     http://www.quantum-espresso.org/quote

     Parallel version (MPI), running on     4 processors

     MPI processes distributed on     1 nodes
     0 MiB available memory on the printing compute node when the environment starts

     Reading input from li_vc_relax_calculation.in

     Current dimensions of program PWSCF are:
     Max number of different atomic species (ntypx) = 10
     Max number of k-points (npk) =  40000
     Max angular momentum in pseudopotentials (lmaxx) =  4
     Found identity + ( -0.5000 -0.5000 -0.5000) symmetry
     This is a supercell, fractional translations are disabled

     R & G space division:  proc/nbgrp/npool/nimage =       4
     Subspace diagonalization in iterative solution of the eigenvalue problem:
     a serial algorithm will be used


     Parallelization info
     --------------------
     sticks:   dense  smooth     PW     G-vecs:    dense   smooth      PW
     Min         184      72     24                 3208      787     156
     Max         185      73     25                 3211      788     157
     Sum         739     291     99                12839     3151     627

     Using Slab Decomposition



     bravais-lattice index     =            3
     lattice parameter (alat)  =       6.6300  a.u.
     unit-cell volume          =     145.7171 (a.u.)^3
     number of atoms/cell      =            2
     number of atomic types    =            1
     number of electrons       =         6.00
     number of Kohn-Sham states=            7
     kinetic-energy cutoff     =      30.0000  Ry
     charge density cutoff     =     300.0000  Ry
     scf convergence threshold =      1.0E-08
     mixing beta               =       0.7000
     number of iterations used =            8  plain     mixing
     energy convergence thresh.=      1.0E-04
     force convergence thresh. =      1.0E-03
     press convergence thresh. =      5.0E-01
     Exchange-correlation= SLA  PW   PBX  PBC
                           (   1   4   3   4   0   0   0)
     nstep                     =           50


     celldm(1)=   6.630000  celldm(2)=   0.000000  celldm(3)=   0.000000
     celldm(4)=   0.000000  celldm(5)=   0.000000  celldm(6)=   0.000000

     crystal axes: (cart. coord. in units of alat)
               a(1) = (   0.500000   0.500000   0.500000 )  
               a(2) = (  -0.500000   0.500000   0.500000 )  
               a(3) = (  -0.500000  -0.500000   0.500000 )  

     reciprocal axes: (cart. coord. in units 2 pi/alat)
               b(1) = (  1.000000  0.000000  1.000000 )  
               b(2) = ( -1.000000  1.000000  0.000000 )  
               b(3) = (  0.000000 -1.000000  1.000000 )  


     PseudoPot. # 1 for Li read from file:
     ../pseudopotentials/Li.pbe-s-kjpaw_psl.1.0.0.UPF
     MD5 check sum: d3662511b3860c829f7212fdb89d6128
     Pseudo is Projector augmented-wave, Zval =  3.0
     Generated using &quot;atomic&quot; code by A. Dal Corso  v.6.3
     Shape of augmentation charge: PSQ
     Using radial grid of 1017 points,  4 beta functions with: 
                l(1) =   0
                l(2) =   0
                l(3) =   1
                l(4) =   1
     Q(r) pseudized with 0 coefficients 


     atomic species   valence    mass     pseudopotential
     Li                3.00     6.94000     Li( 1.00)

     12 Sym. Ops., with inversion, found



   Cartesian axes

     site n.     atom                  positions (alat units)
         1        Li     tau(   1) = (   0.0000000   0.0000000   0.0000000  )
         2        Li     tau(   2) = (  -0.2500000   0.2500000   0.7500000  )

     number of k points=    32  Gaussian smearing, width (Ry)=  0.0100
                       cart. coord. in units 2pi/alat
        k(    1) = (   0.0000000   0.0000000   0.0000000), wk =   0.0092593
        k(    2) = (   0.0000000  -0.1666667   0.1666667), wk =   0.0555556
        k(    3) = (   0.0000000  -0.3333333   0.3333333), wk =   0.0555556
        k(    4) = (   0.0000000   0.5000000  -0.5000000), wk =   0.0277778
        k(    5) = (  -0.1666667  -0.1666667   0.3333333), wk =   0.1111111
        k(    6) = (  -0.1666667   0.6666667  -0.5000000), wk =   0.1111111
        k(    7) = (  -0.3333333   0.6666667  -0.3333333), wk =   0.0555556
        k(    8) = (   0.0000000   0.0000000   0.3333333), wk =   0.0555556
        k(    9) = (   0.0000000  -0.1666667   0.5000000), wk =   0.1111111
        k(   10) = (   0.0000000   0.6666667  -0.3333333), wk =   0.0555556
        k(   11) = (  -0.1666667   0.8333333  -0.3333333), wk =   0.1111111
        k(   12) = (   0.6666667  -0.6666667   0.3333333), wk =   0.0555556
        k(   13) = (   0.5000000  -0.5000000   0.3333333), wk =   0.0555556
        k(   14) = (   0.0000000   0.0000000   0.6666667), wk =   0.0555556
        k(   15) = (   0.0000000   0.8333333  -0.1666667), wk =   0.0555556
        k(   16) = (   0.0000000   0.0000000  -1.0000000), wk =   0.0092593
        k(   17) = (   0.0000000   0.1666667   0.1666667), wk =   0.0555556
        k(   18) = (   0.0000000   0.3333333   0.3333333), wk =   0.0555556
        k(   19) = (   0.0000000  -0.5000000  -0.5000000), wk =   0.0277778
        k(   20) = (  -0.1666667   0.1666667  -0.3333333), wk =   0.0555556
        k(   21) = (  -0.1666667  -0.3333333  -0.1666667), wk =   0.0555556
        k(   22) = (  -0.1666667  -0.6666667   0.5000000), wk =   0.1111111
        k(   23) = (  -0.1666667  -0.5000000  -0.6666667), wk =   0.1111111
        k(   24) = (  -0.1666667   0.5000000   0.6666667), wk =   0.1111111
        k(   25) = (  -0.3333333   0.3333333   0.6666667), wk =   0.0185185
        k(   26) = (   0.0000000   0.5000000   0.1666667), wk =   0.1111111
        k(   27) = (   0.0000000  -0.3333333  -0.6666667), wk =   0.0555556
        k(   28) = (  -0.1666667  -0.8333333   0.3333333), wk =   0.0555556
        k(   29) = (  -0.1666667   0.3333333   0.8333333), wk =   0.0555556
        k(   30) = (   0.6666667   0.3333333   0.6666667), wk =   0.0185185
        k(   31) = (   0.5000000   0.5000000  -0.3333333), wk =   0.0555556
        k(   32) = (   0.0000000  -0.1666667  -0.8333333), wk =   0.0555556

     Dense  grid:    12839 G-vectors     FFT dimensions: (  32,  32,  32)

     Smooth grid:     3151 G-vectors     FFT dimensions: (  20,  20,  20)

     Estimated max dynamical RAM per process >       5.50 MB

     Estimated total dynamical RAM >      22.02 MB

     Initial potential from superposition of free atoms

     starting charge       5.9908, renormalised to       6.0000
     Starting wfcs are   10 randomized atomic wfcs
     Checking if some PAW data can be deallocated... 

     total cpu time spent up to now is        0.2 secs

     Self-consistent Calculation

     iteration #  1     ecut=    30.00 Ry     beta= 0.70
     Davidson diagonalization with overlap
     ethr =  1.00E-02,  avg # of iterations =  3.3

     Threshold (ethr) on eigenvalues was too large:
     Diagonalizing with lowered threshold

     Davidson diagonalization with overlap
     ethr =  3.37E-04,  avg # of iterations =  1.1

     total cpu time spent up to now is        0.4 secs

     total energy              =     -29.72511666 Ry
     estimated scf accuracy    <       0.02078184 Ry

     iteration #  2     ecut=    30.00 Ry     beta= 0.70
     Davidson diagonalization with overlap
     ethr =  3.46E-04,  avg # of iterations =  1.0

     total cpu time spent up to now is        0.5 secs

     total energy              =     -29.72610675 Ry
     estimated scf accuracy    <       0.00078610 Ry

     iteration #  3     ecut=    30.00 Ry     beta= 0.70
     Davidson diagonalization with overlap
     ethr =  1.31E-05,  avg # of iterations =  2.3

     total cpu time spent up to now is        0.6 secs

     total energy              =     -29.72622576 Ry
     estimated scf accuracy    <       0.00000554 Ry

     iteration #  4     ecut=    30.00 Ry     beta= 0.70
     Davidson diagonalization with overlap
     ethr =  9.23E-08,  avg # of iterations =  1.6

     total cpu time spent up to now is        0.6 secs

     total energy              =     -29.72622609 Ry
     estimated scf accuracy    <       0.00000009 Ry

     iteration #  5     ecut=    30.00 Ry     beta= 0.70
     Davidson diagonalization with overlap
     ethr =  1.48E-09,  avg # of iterations =  1.8

     total cpu time spent up to now is        0.6 secs

     End of self-consistent calculation

          k = 0.0000 0.0000 0.0000 (   381 PWs)   bands (ev):

   -46.4106 -44.2924  -0.2185  10.4735  13.6743  13.6743  18.2800

          k = 0.0000-0.1667 0.1667 (   400 PWs)   bands (ev):

   -46.3235 -44.5055   0.1864  10.3623  13.4318  13.6252  13.6639

          k = 0.0000-0.3333 0.3333 (   398 PWs)   bands (ev):

   -45.9148 -44.9362   1.5204   7.2029  12.7815  13.3618  13.4882

          k = 0.0000 0.5000-0.5000 (   392 PWs)   bands (ev):

   -45.4122 -45.4122   3.8385   3.8385  12.6040  12.6040  14.1724

          k =-0.1667-0.1667 0.3333 (   395 PWs)   bands (ev):

   -46.2694 -44.5156   0.5960   8.7533  10.2070  12.0902  14.5011

          k =-0.1667 0.6667-0.5000 (   405 PWs)   bands (ev):

   -45.9308 -44.9507   2.2586   5.8445   9.2361  12.7123  14.7966

          k =-0.3333 0.6667-0.3333 (   406 PWs)   bands (ev):

   -45.9465 -44.9299   2.9251   5.4087   7.4632  12.2281  16.5381

          k = 0.0000 0.0000 0.3333 (   390 PWs)   bands (ev):

   -46.2880 -44.4730   0.3931  10.2375  11.4354  12.3728  12.8959

          k = 0.0000-0.1667 0.5000 (   406 PWs)   bands (ev):

   -45.9481 -44.9459   1.7518   7.5336  11.1350  11.4046  13.2783

          k = 0.0000 0.6667-0.3333 (   414 PWs)   bands (ev):

   -45.4769 -45.4769   4.1025   4.1025  11.3621  11.3621  14.7904

          k =-0.1667 0.8333-0.3333 (   410 PWs)   bands (ev):

   -45.9583 -44.9469   2.5685   6.7075   8.4340  12.2034  12.8837

          k = 0.6667-0.6667 0.3333 (   408 PWs)   bands (ev):

   -46.2895 -44.5623   1.3273   6.7501   7.4085  12.1602  17.2836

          k = 0.5000-0.5000 0.3333 (   408 PWs)   bands (ev):

   -45.9448 -44.9383   3.4975   4.9790   6.1866  12.5631  18.6194

          k = 0.0000 0.0000 0.6667 (   414 PWs)   bands (ev):

   -45.9830 -44.9490   2.5851   8.1008   8.3327  10.2063  12.6980

          k = 0.0000 0.8333-0.1667 (   406 PWs)   bands (ev):

   -45.4489 -45.4489   5.0814   5.0814   9.3581   9.3581  13.1459

          k = 0.0000 0.0000-1.0000 (   418 PWs)   bands (ev):

   -45.4796 -45.4796   6.9256   6.9256   6.9256   6.9256  12.3918

          k = 0.0000 0.1667 0.1667 (   400 PWs)   bands (ev):

   -46.4502 -44.3542  -0.0624   9.9472  11.8958  12.3566  17.3811

          k = 0.0000 0.3333 0.3333 (   398 PWs)   bands (ev):

   -46.4153 -44.3570   0.4737   8.4666   9.0289  10.7734  17.0416

          k = 0.0000-0.5000-0.5000 (   392 PWs)   bands (ev):

   -46.3795 -44.3446   0.9019   6.9001   8.6283  10.1924  17.1489

          k =-0.1667 0.1667-0.3333 (   395 PWs)   bands (ev):

   -45.9480 -44.8843   1.2641   8.9882  10.5484  12.9439  14.9166

          k =-0.1667-0.3333-0.1667 (   395 PWs)   bands (ev):

   -46.4001 -44.3600   0.3521   8.5603   9.2445  12.0552  17.0378

          k =-0.1667-0.6667 0.5000 (   405 PWs)   bands (ev):

   -45.4565 -45.4481   3.1560   5.0838   9.3672  13.1660  15.2519

          k =-0.1667-0.5000-0.6667 (   405 PWs)   bands (ev):

   -46.2894 -44.5417   1.2547   7.3957   7.7921  10.9923  15.9122

          k =-0.1667 0.5000 0.6667 (   405 PWs)   bands (ev):

   -46.4105 -44.3966   1.1697   5.6304   8.6290  11.6077  17.4154

          k =-0.3333 0.3333 0.6667 (   406 PWs)   bands (ev):

   -46.4002 -44.4054   2.8691   2.8691   8.4428  12.2229  18.9893

          k = 0.0000 0.5000 0.1667 (   406 PWs)   bands (ev):

   -46.2895 -44.5561   1.0142   7.9808   9.3381  11.7944  12.9201

          k = 0.0000-0.3333-0.6667 (   414 PWs)   bands (ev):

   -46.3120 -44.5684   1.5719   6.3076   8.8797  11.3137  14.0880

          k =-0.1667-0.8333 0.3333 (   410 PWs)   bands (ev):

   -45.4796 -45.4505   3.8189   4.9612   9.3973  12.6041  14.1438

          k =-0.1667 0.3333 0.8333 (   410 PWs)   bands (ev):

   -46.3090 -44.5450   2.1688   4.8344   9.8580  12.2137  13.0295

          k = 0.6667 0.3333 0.6667 (   408 PWs)   bands (ev):

   -45.4940 -45.4304   2.8143   6.9259   6.9259  12.5182  17.6557

          k = 0.5000 0.5000-0.3333 (   408 PWs)   bands (ev):

   -46.2855 -44.5492   2.2290   4.7613   6.9491  12.1041  18.7969

          k = 0.0000-0.1667-0.8333 (   406 PWs)   bands (ev):

   -45.9511 -44.9213   3.5826   6.0686   8.5357  11.5867  12.0539

     the Fermi energy is     4.1441 ev

!    total energy              =     -29.72622611 Ry
     total all-electron energy =       -29.726249 Ry
     estimated scf accuracy    <          1.3E-09 Ry
     smearing contrib. (-TS)   =      -0.00028701 Ry
     internal energy E=F+TS    =     -29.72593910 Ry

     The total energy is F=E-TS. E is the sum of the following terms:
     one-electron contribution =     -19.07161676 Ry
     hartree contribution      =       7.39167440 Ry
     xc contribution           =      -7.22289661 Ry
     ewald contribution        =     -10.96887267 Ry
     one-center paw contrib.   =       0.14577254 Ry

     convergence has been achieved in   5 iterations

     Forces acting on atoms (cartesian axes, Ry/au):

     atom    1 type  1   force =     0.00000000    0.00000000    0.00000000
     atom    2 type  1   force =     0.00000000    0.00000000    0.00000000

     Total force =     0.000000     Total SCF correction =     0.000000


     Computing stress (Cartesian axis) and pressure

          total   stress  (Ry/bohr**3)                   (kbar)     P=     -165.78
  -0.00112693  -0.00206254   0.00206254         -165.78     -303.41      303.41
  -0.00206254  -0.00112693  -0.00206254         -303.41     -165.78     -303.41
   0.00206254  -0.00206254  -0.00112693          303.41     -303.41     -165.78


     BFGS Geometry Optimization
     Energy error            =      0.0E+00 Ry
     Gradient error          =      0.0E+00 Ry/Bohr
     Cell gradient error     =      3.0E+02 kbar

     number of scf cycles    =   1
     number of bfgs steps    =   0

     enthalpy           new  =     -29.7262261096 Ry

     new trust radius        =       0.1887347145 bohr
     new conv_thr            =       0.0000000100 Ry

     new unit-cell volume =    132.65532 a.u.^3 (    19.65749 Ang^3 )
     density =      1.17249 g/cm^3

CELL_PARAMETERS (alat=  6.63000000)
   0.485913418   0.434350038   0.485913418
  -0.485913418   0.485913418   0.434350038
  -0.434350038  -0.485913418   0.485913418

ATOMIC_POSITIONS (crystal)
Li               0.0000000000        0.0000000000        0.0000000000
Li               0.5000000000        0.5000000000        0.5000000000



     Writing config-only to output data dir ./tmp/Li_BCC.save/ :
     XML data file
     NEW-OLD atomic charge density approx. for the potential

     total cpu time spent up to now is        0.7 secs

     Self-consistent Calculation

     iteration #  1     ecut=    30.00 Ry     beta= 0.70
     Davidson diagonalization with overlap
     ethr =  1.00E-06,  avg # of iterations =  5.6

     total cpu time spent up to now is        0.8 secs

     total energy              =     -29.79521999 Ry
     estimated scf accuracy    <       0.00042398 Ry

     iteration #  2     ecut=    30.00 Ry     beta= 0.70
     Davidson diagonalization with overlap
     ethr =  7.07E-06,  avg # of iterations =  1.0

     total cpu time spent up to now is        0.8 secs

     total energy              =     -29.79521996 Ry
     estimated scf accuracy    <       0.00003652 Ry

     iteration #  3     ecut=    30.00 Ry     beta= 0.70
     Davidson diagonalization with overlap
     ethr =  6.09E-07,  avg # of iterations =  1.0

     total cpu time spent up to now is        0.9 secs

     total energy              =     -29.79522045 Ry
     estimated scf accuracy    <       0.00000001 Ry

     iteration #  4     ecut=    30.00 Ry     beta= 0.70
     Davidson diagonalization with overlap
     ethr =  2.15E-10,  avg # of iterations =  2.0

     total cpu time spent up to now is        1.0 secs

     End of self-consistent calculation

          k = 0.0000 0.0000 0.0000 (   381 PWs)   bands (ev):

   -44.4468 -42.9118   0.3020  11.3833  17.1695  17.8942  17.8942

          k =-0.0174-0.1637 0.1637 (   400 PWs)   bands (ev):

   -44.4007 -43.0783   0.6331  10.6609  13.6096  15.5128  17.2223

          k =-0.0347-0.3275 0.3275 (   398 PWs)   bands (ev):

   -44.0902 -43.3875   1.7878   6.9685  14.3848  14.4166  15.5879

          k = 0.0521 0.4912-0.4912 (   392 PWs)   bands (ev):

   -43.7244 -43.7244   3.8480   3.8480  14.4443  14.4443  16.0965

          k =-0.1985-0.1637 0.3448 (   395 PWs)   bands (ev):

   -44.3260 -43.0873   1.1372   8.3630  12.7025  14.7829  15.3839

          k =-0.1116 0.6549-0.4738 (   405 PWs)   bands (ev):

   -44.0737 -43.4212   2.6926   5.4021  11.0277  15.3381  16.0214

          k =-0.2927 0.6549-0.2927 (   406 PWs)   bands (ev):

   -44.0832 -43.4014   3.5291   4.9009   8.7913  14.7397  17.9978

          k =-0.0174 0.0174 0.3448 (   390 PWs)   bands (ev):

   -44.3458 -43.0501   0.8888  10.6287  11.6893  14.4316  16.2915

          k =-0.0347-0.1464 0.5086 (   406 PWs)   bands (ev):

   -44.1078 -43.3917   2.0701   7.3120  11.6901  13.6586  16.3364

          k = 0.0521 0.6723-0.3101 (   414 PWs)   bands (ev):

   -43.7710 -43.7710   4.1652   4.1652  12.6902  12.6902  17.4997

          k =-0.1116 0.8360-0.2927 (   410 PWs)   bands (ev):

   -44.0927 -43.3876   3.0868   6.3605   9.8779  13.6250  15.0187

          k = 0.6376-0.6376 0.2753 (   408 PWs)   bands (ev):

   -44.3266 -43.1258   2.0330   6.7309   8.5810  14.9034  18.1961

          k = 0.4738-0.4738 0.2927 (   408 PWs)   bands (ev):

   -44.0739 -43.4158   4.1982   4.4289   7.4352  14.6250  20.4591

          k =-0.0347 0.0347 0.6897 (   414 PWs)   bands (ev):

   -44.1179 -43.3884   3.0846   8.2029   9.7490  10.4807  14.9449

          k = 0.0521 0.8534-0.1290 (   406 PWs)   bands (ev):

   -43.7307 -43.7307   5.3411   5.3411  10.3878  10.3878  14.6754

          k = 0.0521-0.0521-1.0345 (   418 PWs)   bands (ev):

   -43.7575 -43.7575   7.5665   7.5665   7.5665   7.5665  13.4038

          k = 0.0000 0.1811 0.1811 (   400 PWs)   bands (ev):

   -44.4838 -42.9359   0.4895  10.3194  15.0747  16.0702  16.0807

          k = 0.0000 0.3622 0.3622 (   398 PWs)   bands (ev):

   -44.4285 -42.9461   1.1582   8.7175  10.5525  14.0590  15.7058

          k = 0.0000-0.5433-0.5433 (   392 PWs)   bands (ev):

   -44.3748 -42.9447   1.7082   8.0863   8.5713  13.3400  15.8584

          k =-0.1464 0.1464-0.3275 (   395 PWs)   bands (ev):

   -44.1193 -43.3560   1.4827   8.9832  11.0230  13.8740  18.5126

          k =-0.1811-0.3622-0.1811 (   395 PWs)   bands (ev):

   -44.4118 -42.9453   1.0017   9.0810  10.9612  15.2052  15.6547

          k =-0.2332-0.6723 0.4912 (   405 PWs)   bands (ev):

   -43.7762 -43.7547   3.0432   5.3482  10.4225  14.8225  17.6293

          k =-0.1637-0.5607-0.7071 (   405 PWs)   bands (ev):

   -44.3089 -43.1105   1.9673   7.1435   9.1112  14.0347  16.2066

          k =-0.1811 0.5433 0.7244 (   405 PWs)   bands (ev):

   -44.3959 -42.9860   2.0133   7.3303   8.1070  14.4913  16.1286

          k =-0.3622 0.3622 0.7244 (   406 PWs)   bands (ev):

   -44.3686 -42.9998   4.0602   4.0602   7.8383  14.8995  17.9996

          k = 0.0174 0.5259 0.1985 (   406 PWs)   bands (ev):

   -44.3323 -43.1075   1.6533   9.0493   9.9933  12.5525  14.7729

          k = 0.0174-0.3796-0.7071 (   414 PWs)   bands (ev):

   -44.3306 -43.1299   2.3597   7.8840   8.3878  13.8630  14.1772

          k =-0.2332-0.8534 0.3101 (   410 PWs)   bands (ev):

   -43.7751 -43.7416   3.8218   5.2166  10.2477  14.4531  16.0165

          k =-0.1985 0.3796 0.8882 (   410 PWs)   bands (ev):

   -44.3378 -43.1179   3.0593   6.2676   9.6531  12.4783  14.7502

          k = 0.6723 0.4143 0.6723 (   408 PWs)   bands (ev):

   -43.8107 -43.7247   2.6519   7.5646   7.5646  13.8386  21.2590

          k = 0.5607 0.5259-0.3448 (   408 PWs)   bands (ev):

   -44.3073 -43.1143   3.1445   6.1517   6.1904  14.6883  19.7762

          k = 0.0347-0.2159-0.8708 (   406 PWs)   bands (ev):

   -44.0895 -43.3684   4.3146   7.2590   8.4573  12.1022  12.4487

     the Fermi energy is     4.3102 ev

!    total energy              =     -29.79522049 Ry
     total all-electron energy =       -29.795243 Ry
     estimated scf accuracy    <          3.6E-10 Ry
     smearing contrib. (-TS)   =      -0.00041360 Ry
     internal energy E=F+TS    =     -29.79480689 Ry

     The total energy is F=E-TS. E is the sum of the following terms:
     one-electron contribution =     -17.64382858 Ry
     hartree contribution      =       6.99795076 Ry
     xc contribution           =      -7.28034708 Ry
     ewald contribution        =     -12.01741441 Ry
     one-center paw contrib.   =       0.14883243 Ry

     convergence has been achieved in   4 iterations

     Forces acting on atoms (cartesian axes, Ry/au):

     atom    1 type  1   force =    -0.00000000    0.00000000   -0.00000000
     atom    2 type  1   force =    -0.00000000    0.00000000   -0.00000000

     Total force =     0.000000     Total SCF correction =     0.000000


     Computing stress (Cartesian axis) and pressure

          total   stress  (Ry/bohr**3)                   (kbar)     P=      -90.54
  -0.00061550  -0.00058057   0.00058057          -90.54      -85.41       85.41
  -0.00058057  -0.00061550  -0.00058057          -85.41      -90.54      -85.41
   0.00058057  -0.00058057  -0.00061550           85.41      -85.41      -90.54

     Energy error            =      6.9E-02 Ry
     Gradient error          =      5.2E-31 Ry/Bohr
     Cell gradient error     =      9.1E+01 kbar

     number of scf cycles    =   2
     number of bfgs steps    =   1

     enthalpy           old  =     -29.7262261096 Ry
     enthalpy           new  =     -29.7952204884 Ry

     CASE: enthalpy          _new < enthalpy          _old

     new trust radius        =       0.0930469210 bohr
     new conv_thr            =            1.0E-10 Ry

     new unit-cell volume =    122.25507 a.u.^3 (    18.11633 Ang^3 )
     density =      1.27224 g/cm^3

CELL_PARAMETERS (alat=  6.63000000)
   0.474213417   0.401870295   0.474213417
  -0.474213417   0.474213417   0.401870295
  -0.401870295  -0.474213417   0.474213417

ATOMIC_POSITIONS (crystal)
Li              -0.0000000000        0.0000000000       -0.0000000000
Li               0.5000000000        0.5000000000        0.5000000000



     Writing config-only to output data dir ./tmp/Li_BCC.save/ :
     XML data file
     NEW-OLD atomic charge density approx. for the potential

     total cpu time spent up to now is        1.0 secs

     Self-consistent Calculation

     iteration #  1     ecut=    30.00 Ry     beta= 0.70
     Davidson diagonalization with overlap
     ethr =  1.00E-06,  avg # of iterations =  4.7

     total cpu time spent up to now is        1.1 secs

     total energy              =     -29.80423305 Ry
     estimated scf accuracy    <       0.00014938 Ry

     iteration #  2     ecut=    30.00 Ry     beta= 0.70
     Davidson diagonalization with overlap
     ethr =  2.49E-06,  avg # of iterations =  1.0

     total cpu time spent up to now is        1.1 secs

     total energy              =     -29.80421717 Ry
     estimated scf accuracy    <       0.00001262 Ry

     iteration #  3     ecut=    30.00 Ry     beta= 0.70
     Davidson diagonalization with overlap
     ethr =  2.10E-07,  avg # of iterations =  1.0

     total cpu time spent up to now is        1.2 secs

     total energy              =     -29.80421731 Ry
     estimated scf accuracy    <          4.2E-09 Ry

     iteration #  4     ecut=    30.00 Ry     beta= 0.70
     Davidson diagonalization with overlap
     ethr =  7.02E-11,  avg # of iterations =  2.1

     total cpu time spent up to now is        1.2 secs

     End of self-consistent calculation

          k = 0.0000 0.0000 0.0000 (   381 PWs)   bands (ev):

   -43.4860 -41.9868   0.8169  12.3516  17.4286  20.5877  20.5879

          k =-0.0252-0.1651 0.1651 (   400 PWs)   bands (ev):

   -43.4383 -42.1534   1.1165  11.2254  14.3297  16.1492  19.6583

          k =-0.0504-0.3301 0.3301 (   398 PWs)   bands (ev):

   -43.1384 -42.4507   2.2050   7.2864  15.4146  15.5380  17.5017

          k = 0.0755 0.4952-0.4952 (   392 PWs)   bands (ev):

   -42.7804 -42.7803   4.1927   4.1927  15.8923  15.8923  17.6319

          k =-0.2154-0.1651 0.3553 (   395 PWs)   bands (ev):

   -43.3479 -42.1685   1.6301   8.5988  14.3957  15.5664  17.5575

          k =-0.0895 0.6602-0.4700 (   405 PWs)   bands (ev):

   -43.0970 -42.4975   3.1575   5.6026  12.3548  17.1955  17.2370

          k =-0.2798 0.6602-0.2798 (   406 PWs)   bands (ev):

   -43.0962 -42.4846   4.0498   5.0656   9.8695  16.5285  19.2949

          k =-0.0252 0.0252 0.3553 (   390 PWs)   bands (ev):

   -43.3736 -42.1296   1.3765  11.2841  11.9347  16.3901  18.5413

          k =-0.0504-0.1399 0.5204 (   406 PWs)   bands (ev):

   -43.1427 -42.4535   2.4972   7.6261  12.4965  15.2767  18.4258

          k = 0.0755 0.6854-0.3049 (   414 PWs)   bands (ev):

   -42.8152 -42.8152   4.5233   4.5233  13.8802  13.8802  19.4718

          k =-0.0895 0.8505-0.2798 (   410 PWs)   bands (ev):

   -43.1084 -42.4522   3.5707   6.6015  11.0485  14.4954  16.9575

          k = 0.6351-0.6351 0.2546 (   408 PWs)   bands (ev):

   -43.3284 -42.2078   2.5820   6.8264   9.8209  16.8551  19.3921

          k = 0.4700-0.4700 0.2798 (   408 PWs)   bands (ev):

   -43.0819 -42.5029   4.5790   4.7963   8.3784  16.2630  22.0482

          k =-0.0504 0.0504 0.7106 (   414 PWs)   bands (ev):

   -43.1329 -42.4470   3.5799   8.5675  10.9504  11.0739  16.6065

          k = 0.0755 0.8757-0.1147 (   406 PWs)   bands (ev):

   -42.7688 -42.7688   5.7907   5.7907  11.3474  11.3474  15.9181

          k = 0.0755-0.0755-1.0659 (   418 PWs)   bands (ev):

   -42.7903 -42.7903   8.2476   8.2476   8.2476   8.2476  14.3569

          k =-0.0000 0.1902 0.1902 (   400 PWs)   bands (ev):

   -43.5079 -42.0032   0.9970  10.9057  16.2281  17.1213  17.1534

          k =-0.0000 0.3805 0.3805 (   398 PWs)   bands (ev):

   -43.4327 -42.0205   1.6801   8.9114  12.0269  15.8592  16.1722

          k = 0.0000-0.5707-0.5707 (   392 PWs)   bands (ev):

   -43.3691 -42.0253   2.2531   8.1589   9.8269  15.3662  16.0649

          k =-0.1399 0.1399-0.3301 (   395 PWs)   bands (ev):

   -43.1711 -42.4227   1.8922   9.4300  11.7935  14.9264  20.9121

          k =-0.1902-0.3805-0.1902 (   395 PWs)   bands (ev):

   -43.4226 -42.0171   1.5250   9.3630  12.5353  15.7348  17.3343

          k =-0.2658-0.6854 0.4952 (   405 PWs)   bands (ev):

   -42.8457 -42.7938   3.3404   5.8032  11.4134  16.2189  19.4094

          k =-0.1651-0.5959-0.7358 (   405 PWs)   bands (ev):

   -43.3060 -42.1940   2.4961   7.2390  10.3791  16.0488  16.8987

          k =-0.1902 0.5707 0.7610 (   405 PWs)   bands (ev):

   -43.3851 -42.0622   2.6002   8.2041   8.4843  16.2916  16.5002

          k =-0.3805 0.3805 0.7610 (   406 PWs)   bands (ev):

   -43.3510 -42.0760   4.8584   4.8584   7.9039  16.8617  18.3370

          k = 0.0252 0.5455 0.2154 (   406 PWs)   bands (ev):

   -43.3399 -42.1810   2.1698   9.2961  11.3793  12.9449  16.8012

          k = 0.0252-0.4057-0.7358 (   414 PWs)   bands (ev):

   -43.3223 -42.2079   2.9197   8.5301   9.0326  14.3019  16.1379

          k =-0.2658-0.8757 0.3049 (   410 PWs)   bands (ev):

   -42.8239 -42.7815   4.1580   5.6441  11.1816  15.9094  17.4728

          k =-0.2154 0.4057 0.9260 (   410 PWs)   bands (ev):

   -43.3300 -42.1977   3.6993   7.2509   9.8899  12.8108  16.6075

          k = 0.6854 0.4560 0.6854 (   408 PWs)   bands (ev):

   -42.8811 -42.7634   2.9358   8.2439   8.2439  15.1298  23.7709

          k = 0.5959 0.5455-0.3553 (   408 PWs)   bands (ev):

   -43.2983 -42.1992   3.7888   6.2446   7.1229  16.5816  20.6926

          k = 0.0504-0.2406-0.9008 (   406 PWs)   bands (ev):

   -43.1018 -42.4324   4.9198   8.1816   8.8536  12.8901  13.0450

     the Fermi energy is     4.8227 ev

!    total energy              =     -29.80421732 Ry
     total all-electron energy =       -29.804240 Ry
     estimated scf accuracy    <          2.7E-11 Ry
     smearing contrib. (-TS)   =      -0.00035790 Ry
     internal energy E=F+TS    =     -29.80385942 Ry

     The total energy is F=E-TS. E is the sum of the following terms:
     one-electron contribution =     -16.86108808 Ry
     hartree contribution      =       6.81106214 Ry
     xc contribution           =      -7.32969882 Ry
     ewald contribution        =     -12.57535345 Ry
     one-center paw contrib.   =       0.15121878 Ry

     convergence has been achieved in   4 iterations

     Forces acting on atoms (cartesian axes, Ry/au):

     atom    1 type  1   force =     0.00000000   -0.00000000    0.00000000
     atom    2 type  1   force =    -0.00000000    0.00000000   -0.00000000

     Total force =     0.000000     Total SCF correction =     0.000000


     Computing stress (Cartesian axis) and pressure

          total   stress  (Ry/bohr**3)                   (kbar)     P=        3.74
   0.00002540  -0.00008856   0.00008856            3.74      -13.03       13.03
  -0.00008856   0.00002540  -0.00008856          -13.03        3.74      -13.03
   0.00008856  -0.00008856   0.00002540           13.03      -13.03        3.74

     Energy error            =      9.0E-03 Ry
     Gradient error          =      6.5E-31 Ry/Bohr
     Cell gradient error     =      1.3E+01 kbar

     number of scf cycles    =   3
     number of bfgs steps    =   2

     enthalpy           old  =     -29.7952204884 Ry
     enthalpy           new  =     -29.8042173175 Ry

     CASE: enthalpy          _new < enthalpy          _old

     new trust radius        =       0.0082357510 bohr
     new conv_thr            =            1.0E-10 Ry

     new unit-cell volume =    121.93557 a.u.^3 (    18.06899 Ang^3 )
     density =      1.27557 g/cm^3

CELL_PARAMETERS (alat=  6.63000000)
   0.473988356   0.399093262   0.473988356
  -0.473988356   0.473988356   0.399093262
  -0.399093262  -0.473988356   0.473988356

ATOMIC_POSITIONS (crystal)
Li              -0.0000000000        0.0000000000        0.0000000000
Li               0.5000000000        0.5000000000        0.5000000000



     Writing config-only to output data dir ./tmp/Li_BCC.save/ :
     XML data file
     NEW-OLD atomic charge density approx. for the potential

     total cpu time spent up to now is        1.2 secs

     Self-consistent Calculation

     iteration #  1     ecut=    30.00 Ry     beta= 0.70
     Davidson diagonalization with overlap
     ethr =  1.00E-06,  avg # of iterations =  3.0

     Threshold (ethr) on eigenvalues was too large:
     Diagonalizing with lowered threshold

     Davidson diagonalization with overlap
     ethr =  6.08E-09,  avg # of iterations =  1.9

     total cpu time spent up to now is        1.3 secs

     total energy              =     -29.80429619 Ry
     estimated scf accuracy    <       0.00000037 Ry

     iteration #  2     ecut=    30.00 Ry     beta= 0.70
     Davidson diagonalization with overlap
     ethr =  6.18E-09,  avg # of iterations =  1.0

     total cpu time spent up to now is        1.4 secs

     total energy              =     -29.80429622 Ry
     estimated scf accuracy    <       0.00000003 Ry

     iteration #  3     ecut=    30.00 Ry     beta= 0.70
     Davidson diagonalization with overlap
     ethr =  5.26E-10,  avg # of iterations =  1.0

     total cpu time spent up to now is        1.4 secs

     total energy              =     -29.80429622 Ry
     estimated scf accuracy    <          2.1E-10 Ry

     iteration #  4     ecut=    30.00 Ry     beta= 0.70
     Davidson diagonalization with overlap
     ethr =  3.46E-12,  avg # of iterations =  1.8

     total cpu time spent up to now is        1.5 secs

     End of self-consistent calculation

          k = 0.0000 0.0000 0.0000 (   381 PWs)   bands (ev):

   -43.4178 -41.9368   0.8385  12.3873  17.3649  17.3649  20.7967

          k =-0.0260-0.1648 0.1648 (   400 PWs)   bands (ev):

   -43.3716 -42.1038   1.1346  11.2162  14.3351  16.1372  19.8416

          k =-0.0521-0.3297 0.3297 (   398 PWs)   bands (ev):

   -43.0752 -42.3975   2.2145   7.2701  15.4534  15.5729  17.6352

          k = 0.0781 0.4945-0.4945 (   392 PWs)   bands (ev):

   -42.7219 -42.7219   4.1896   4.1896  15.9787  15.9787  17.7005

          k =-0.2169-0.1648 0.3557 (   395 PWs)   bands (ev):

   -43.2795 -42.1195   1.6540   8.5644  14.5125  15.5691  17.7143

          k =-0.0867 0.6594-0.4685 (   405 PWs)   bands (ev):

   -43.0319 -42.4458   3.1765   5.5758  12.4378  17.2802  17.3049

          k =-0.2776 0.6594-0.2776 (   406 PWs)   bands (ev):

   -43.0306 -42.4331   4.0788   5.0353   9.9279  16.6322  19.3329

          k =-0.0260 0.0260 0.3557 (   390 PWs)   bands (ev):

   -43.3056 -42.0799   1.3976  11.2838  11.8959  16.5342  18.6972

          k =-0.0521-0.1388 0.5206 (   406 PWs)   bands (ev):

   -43.0787 -42.4003   2.5095   7.6102  12.5087  15.3793  18.5687

          k = 0.0781 0.6854-0.3036 (   414 PWs)   bands (ev):

   -42.7565 -42.7565   4.5227   4.5227  13.9320  13.9320  19.6008

          k =-0.0867 0.8503-0.2776 (   410 PWs)   bands (ev):

   -43.0431 -42.3991   3.5948   6.5774  11.1092  14.5070  17.0895

          k = 0.6333-0.6333 0.2516 (   408 PWs)   bands (ev):

   -43.2588 -42.1590   2.6153   6.7824   9.9101  16.9644  19.4252

          k = 0.4685-0.4685 0.2776 (   408 PWs)   bands (ev):

   -43.0157 -42.4517   4.5478   4.8296   8.4388  16.3323  22.1125

          k =-0.0521 0.0521 0.7115 (   414 PWs)   bands (ev):

   -43.0678 -42.3934   3.6020   8.5580  11.0301  11.0620  16.6813

          k = 0.0781 0.8763-0.1128 (   406 PWs)   bands (ev):

   -42.7093 -42.7093   5.8005   5.8005  11.3890  11.3890  15.9550

          k = 0.0781-0.0781-1.0672 (   418 PWs)   bands (ev):

   -42.7309 -42.7309   8.2773   8.2773   8.2773   8.2773  14.3543

          k = 0.0000 0.1909 0.1909 (   400 PWs)   bands (ev):

   -43.4392 -41.9529   1.0208  10.9002  16.1573  17.0732  17.3026

          k = 0.0000 0.3818 0.3818 (   398 PWs)   bands (ev):

   -43.3622 -41.9709   1.7122   8.8695  12.1226  15.7890  16.3339

          k = 0.0000-0.5727-0.5727 (   392 PWs)   bands (ev):

   -43.2974 -41.9763   2.2929   8.1066   9.9006  15.5214  15.9987

          k =-0.1388 0.1388-0.3297 (   395 PWs)   bands (ev):

   -43.1082 -42.3696   1.8989   9.4264  11.8090  14.9582  21.0801

          k =-0.1909-0.3818-0.1909 (   395 PWs)   bands (ev):

   -43.3523 -41.9673   1.5547   9.3291  12.6520  15.6592  17.4727

          k =-0.2690-0.6854 0.4945 (   405 PWs)   bands (ev):

   -42.7889 -42.7346   3.3308   5.8138  11.4599  16.2753  19.5094

          k =-0.1648-0.5987-0.7375 (   405 PWs)   bands (ev):

   -43.2357 -42.1454   2.5306   7.1935  10.4561  16.1939  16.8779

          k =-0.1909 0.5727 0.7636 (   405 PWs)   bands (ev):

   -43.3131 -42.0133   2.6412   8.1543   8.5659  16.2222  16.6206

          k =-0.3818 0.3818 0.7636 (   406 PWs)   bands (ev):

   -43.2783 -42.0272   4.9170   4.9170   7.8517  16.9594  18.2806

          k = 0.0260 0.5466 0.2169 (   406 PWs)   bands (ev):

   -43.2707 -42.1315   2.1995   9.2587  11.4745  12.9149  16.9337

          k = 0.0260-0.4078-0.7375 (   414 PWs)   bands (ev):

   -43.2520 -42.1592   2.9584   8.4841   9.1045  14.2687  16.2648

          k =-0.2690-0.8763 0.3036 (   410 PWs)   bands (ev):

   -42.7655 -42.7223   4.1538   5.6550  11.2080  15.9971  17.5301

          k =-0.2169 0.4078 0.9284 (   410 PWs)   bands (ev):

   -43.2599 -42.1490   3.7426   7.3211   9.8451  12.7786  16.6972

          k = 0.6854 0.4599 0.6854 (   408 PWs)   bands (ev):

   -42.8246 -42.7041   2.9240   8.2734   8.2734  15.1698  23.9406

          k = 0.5987 0.5466-0.3557 (   408 PWs)   bands (ev):

   -43.2277 -42.1504   3.8337   6.1979   7.1901  16.6790  20.6566

          k = 0.0521-0.2430-0.9024 (   406 PWs)   bands (ev):

   -43.0363 -42.3793   4.9552   8.2376   8.8419  12.9120  13.0232

     the Fermi energy is     4.8597 ev

!    total energy              =     -29.80429622 Ry
     total all-electron energy =       -29.804319 Ry
     estimated scf accuracy    <          6.2E-13 Ry
     smearing contrib. (-TS)   =      -0.00036360 Ry
     internal energy E=F+TS    =     -29.80393262 Ry

     The total energy is F=E-TS. E is the sum of the following terms:
     one-electron contribution =     -16.81189171 Ry
     hartree contribution      =       6.79716866 Ry
     xc contribution           =      -7.33044101 Ry
     ewald contribution        =     -12.60994538 Ry
     one-center paw contrib.   =       0.15117681 Ry

     convergence has been achieved in   4 iterations

     Forces acting on atoms (cartesian axes, Ry/au):

     atom    1 type  1   force =     0.00000000    0.00000000    0.00000000
     atom    2 type  1   force =     0.00000000    0.00000000   -0.00000000

     Total force =     0.000000     Total SCF correction =     0.000000


     Computing stress (Cartesian axis) and pressure

          total   stress  (Ry/bohr**3)                   (kbar)     P=        4.60
   0.00003126  -0.00000586   0.00000586            4.60       -0.86        0.86
  -0.00000586   0.00003126  -0.00000586           -0.86        4.60       -0.86
   0.00000586  -0.00000586   0.00003126            0.86       -0.86        4.60

     Energy error            =      7.9E-05 Ry
     Gradient error          =      1.4E-30 Ry/Bohr
     Cell gradient error     =      4.6E+00 kbar

     number of scf cycles    =   4
     number of bfgs steps    =   3

     enthalpy           old  =     -29.8042173175 Ry
     enthalpy           new  =     -29.8042962176 Ry

     CASE: enthalpy          _new < enthalpy          _old

     new trust radius        =       0.0016611275 bohr
     new conv_thr            =            1.0E-10 Ry

     new unit-cell volume =    122.21017 a.u.^3 (    18.10968 Ang^3 )
     density =      1.27271 g/cm^3

CELL_PARAMETERS (alat=  6.63000000)
   0.474346837   0.399355368   0.474346837
  -0.474346837   0.474346837   0.399355368
  -0.399355368  -0.474346837   0.474346837

ATOMIC_POSITIONS (crystal)
Li              -0.0000000000        0.0000000000        0.0000000000
Li               0.5000000000        0.5000000000        0.5000000000



     Writing config-only to output data dir ./tmp/Li_BCC.save/ :
     XML data file
     NEW-OLD atomic charge density approx. for the potential

     total cpu time spent up to now is        1.5 secs

     Self-consistent Calculation

     iteration #  1     ecut=    30.00 Ry     beta= 0.70
     Davidson diagonalization with overlap
     ethr =  1.00E-06,  avg # of iterations =  2.0

     Threshold (ethr) on eigenvalues was too large:
     Diagonalizing with lowered threshold

     Davidson diagonalization with overlap
     ethr =  2.82E-09,  avg # of iterations =  1.4

     total cpu time spent up to now is        1.6 secs

     total energy              =     -29.80430184 Ry
     estimated scf accuracy    <       0.00000015 Ry

     iteration #  2     ecut=    30.00 Ry     beta= 0.70
     Davidson diagonalization with overlap
     ethr =  2.48E-09,  avg # of iterations =  1.0

     total cpu time spent up to now is        1.6 secs

     total energy              =     -29.80430182 Ry
     estimated scf accuracy    <       0.00000001 Ry

     iteration #  3     ecut=    30.00 Ry     beta= 0.70
     Davidson diagonalization with overlap
     ethr =  1.90E-10,  avg # of iterations =  1.0

     total cpu time spent up to now is        1.6 secs

     End of self-consistent calculation

          k = 0.0000 0.0000 0.0000 (   381 PWs)   bands (ev):

   -43.4295 -41.9544   0.8243  12.3602  17.3312  17.3312  20.7598

          k =-0.0260-0.1647 0.1647 (   400 PWs)   bands (ev):

   -43.3840 -42.1213   1.1205  11.1910  14.3060  16.1065  19.8066

          k =-0.0521-0.3294 0.3294 (   398 PWs)   bands (ev):

   -43.0885 -42.4141   2.2002   7.2509  15.4246  15.5402  17.6039

          k = 0.0781 0.4942-0.4942 (   392 PWs)   bands (ev):

   -42.7368 -42.7368   4.1739   4.1739  15.9496  15.9496  17.6637

          k =-0.2168-0.1647 0.3555 (   395 PWs)   bands (ev):

   -43.2920 -42.1368   1.6418   8.5429  14.4844  15.5383  17.6808

          k =-0.0866 0.6589-0.4681 (   405 PWs)   bands (ev):

   -43.0456 -42.4622   3.1638   5.5576  12.4125  17.2465  17.2688

          k =-0.2774 0.6589-0.2774 (   406 PWs)   bands (ev):

   -43.0446 -42.4493   4.0675   5.0173   9.9042  16.5969  19.2960

          k =-0.0260 0.0260 0.3555 (   390 PWs)   bands (ev):

   -43.3180 -42.0972   1.3845  11.2579  11.8715  16.5048  18.6606

          k =-0.0521-0.1387 0.5202 (   406 PWs)   bands (ev):

   -43.0923 -42.4169   2.4959   7.5914  12.4807  15.3494  18.5338

          k = 0.0781 0.6849-0.3034 (   414 PWs)   bands (ev):

   -42.7716 -42.7716   4.5074   4.5074  13.9021  13.9021  19.5656

          k =-0.0866 0.8496-0.2774 (   410 PWs)   bands (ev):

   -43.0570 -42.4154   3.5832   6.5588  11.0829  14.4773  17.0569

          k = 0.6328-0.6328 0.2513 (   408 PWs)   bands (ev):

   -43.2718 -42.1763   2.6042   6.7627   9.8906  16.9245  19.3878

          k = 0.4681-0.4681 0.2774 (   408 PWs)   bands (ev):

   -43.0298 -42.4678   4.5299   4.8165   8.4211  16.2917  22.0713

          k =-0.0521 0.0521 0.7110 (   414 PWs)   bands (ev):

   -43.0818 -42.4100   3.5892   8.5391  11.0087  11.0353  16.6425

          k = 0.0781 0.8757-0.1126 (   406 PWs)   bands (ev):

   -42.7244 -42.7244   5.7852   5.7852  11.3645  11.3645  15.9207

          k = 0.0781-0.0781-1.0664 (   418 PWs)   bands (ev):

   -42.7463 -42.7463   8.2595   8.2595   8.2595   8.2595  14.3192

          k = 0.0000 0.1908 0.1908 (   400 PWs)   bands (ev):

   -43.4514 -41.9704   1.0079  10.8756  16.1253  17.0400  17.2703

          k = 0.0000 0.3815 0.3815 (   398 PWs)   bands (ev):

   -43.3748 -41.9883   1.7018   8.8480  12.0959  15.7566  16.3043

          k = 0.0000-0.5723-0.5723 (   392 PWs)   bands (ev):

   -43.3100 -41.9936   2.2845   8.0863   9.8751  15.4929  15.9652

          k =-0.1387 0.1387-0.3294 (   395 PWs)   bands (ev):

   -43.1214 -42.3861   1.8839   9.4063  11.7827  14.9269  21.0416

          k =-0.1908-0.3815-0.1908 (   395 PWs)   bands (ev):

   -43.3646 -41.9847   1.5433   9.3068  12.6285  15.6284  17.4351

          k =-0.2689-0.6849 0.4942 (   405 PWs)   bands (ev):

   -42.8037 -42.7500   3.3146   5.7985  11.4354  16.2397  19.4727

          k =-0.1647-0.5983-0.7370 (   405 PWs)   bands (ev):

   -43.2487 -42.1626   2.5208   7.1736  10.4312  16.1627  16.8445

          k =-0.1908 0.5723 0.7630 (   405 PWs)   bands (ev):

   -43.3259 -42.0308   2.6314   8.1336   8.5473  16.1899  16.5819

          k =-0.3815 0.3815 0.7630 (   406 PWs)   bands (ev):

   -43.2910 -42.0447   4.9048   4.9048   7.8312  16.9154  18.2461

          k = 0.0260 0.5462 0.2168 (   406 PWs)   bands (ev):

   -43.2836 -42.1489   2.1884   9.2364  11.4511  12.8884  16.8981

          k = 0.0260-0.4076-0.7370 (   414 PWs)   bands (ev):

   -43.2651 -42.1767   2.9489   8.4629   9.0826  14.2397  16.2300

          k =-0.2689-0.8757 0.3034 (   410 PWs)   bands (ev):

   -42.7806 -42.7375   4.1381   5.6409  11.1797  15.9680  17.4937

          k =-0.2168 0.4076 0.9278 (   410 PWs)   bands (ev):

   -43.2731 -42.1665   3.7313   7.3053   9.8217  12.7530  16.6551

          k = 0.6849 0.4596 0.6849 (   408 PWs)   bands (ev):

   -42.8392 -42.7194   2.9074   8.2556   8.2556  15.1324  23.8981

          k = 0.5983 0.5462-0.3555 (   408 PWs)   bands (ev):

   -43.2408 -42.1675   3.8229   6.1787   7.1737  16.6374  20.6168

          k = 0.0521-0.2428-0.9017 (   406 PWs)   bands (ev):

   -43.0504 -42.3957   4.9425   8.2194   8.8215  12.8869  12.9943

     the Fermi energy is     4.8465 ev

!    total energy              =     -29.80430182 Ry
     total all-electron energy =       -29.804325 Ry
     estimated scf accuracy    <          7.6E-12 Ry
     smearing contrib. (-TS)   =      -0.00036518 Ry
     internal energy E=F+TS    =     -29.80393664 Ry

     The total energy is F=E-TS. E is the sum of the following terms:
     one-electron contribution =     -16.82493684 Ry
     hartree contribution      =       6.79966829 Ry
     xc contribution           =      -7.32890460 Ry
     ewald contribution        =     -12.60085137 Ry
     one-center paw contrib.   =       0.15108788 Ry

     convergence has been achieved in   3 iterations

     Forces acting on atoms (cartesian axes, Ry/au):

     atom    1 type  1   force =    -0.00000000   -0.00000000    0.00000000
     atom    2 type  1   force =    -0.00000000   -0.00000000    0.00000000

     Total force =     0.000000     Total SCF correction =     0.000000


     Computing stress (Cartesian axis) and pressure

          total   stress  (Ry/bohr**3)                   (kbar)     P=        1.29
   0.00000878  -0.00000178   0.00000178            1.29       -0.26        0.26
  -0.00000178   0.00000878  -0.00000178           -0.26        1.29       -0.26
   0.00000178  -0.00000178   0.00000878            0.26       -0.26        1.29

     Energy error            =      5.6E-06 Ry
     Gradient error          =      5.2E-31 Ry/Bohr
     Cell gradient error     =      1.3E+00 kbar

     number of scf cycles    =   5
     number of bfgs steps    =   4

     enthalpy           old  =     -29.8042962176 Ry
     enthalpy           new  =     -29.8043018227 Ry

     CASE: enthalpy          _new < enthalpy          _old

     new trust radius        =       0.0006487680 bohr
     new conv_thr            =            1.0E-10 Ry

     new unit-cell volume =    122.31722 a.u.^3 (    18.12554 Ang^3 )
     density =      1.27159 g/cm^3

CELL_PARAMETERS (alat=  6.63000000)
   0.474486886   0.399451915   0.474486886
  -0.474486886   0.474486886   0.399451915
  -0.399451915  -0.474486886   0.474486886

ATOMIC_POSITIONS (crystal)
Li               0.0000000000       -0.0000000000        0.0000000000
Li               0.5000000000        0.5000000000        0.5000000000



     Writing config-only to output data dir ./tmp/Li_BCC.save/ :
     XML data file
     NEW-OLD atomic charge density approx. for the potential

     total cpu time spent up to now is        1.7 secs

     Self-consistent Calculation

     iteration #  1     ecut=    30.00 Ry     beta= 0.70
     Davidson diagonalization with overlap
     ethr =  1.00E-06,  avg # of iterations =  2.0

     Threshold (ethr) on eigenvalues was too large:
     Diagonalizing with lowered threshold

     Davidson diagonalization with overlap
     ethr =  4.41E-10,  avg # of iterations =  1.4

     total cpu time spent up to now is        1.8 secs

     total energy              =     -29.80430231 Ry
     estimated scf accuracy    <       0.00000002 Ry

     iteration #  2     ecut=    30.00 Ry     beta= 0.70
     Davidson diagonalization with overlap
     ethr =  3.83E-10,  avg # of iterations =  1.0

     total cpu time spent up to now is        1.8 secs

     total energy              =     -29.80430231 Ry
     estimated scf accuracy    <          1.8E-09 Ry

     iteration #  3     ecut=    30.00 Ry     beta= 0.70
     Davidson diagonalization with overlap
     ethr =  2.95E-11,  avg # of iterations =  1.0

     total cpu time spent up to now is        1.8 secs

     End of self-consistent calculation

          k = 0.0000 0.0000 0.0000 (   381 PWs)   bands (ev):

   -43.4339 -41.9611   0.8188  12.3497  17.3178  17.3178  20.7458

          k =-0.0260-0.1647 0.1647 (   400 PWs)   bands (ev):

   -43.3887 -42.1279   1.1150  11.1812  14.2946  16.0945  19.7933

          k =-0.0521-0.3293 0.3293 (   398 PWs)   bands (ev):

   -43.0935 -42.4204   2.1946   7.2433  15.4133  15.5274  17.5920

          k = 0.0781 0.4940-0.4940 (   392 PWs)   bands (ev):

   -42.7424 -42.7424   4.1677   4.1677  15.9384  15.9384  17.6494

          k =-0.2167-0.1647 0.3554 (   395 PWs)   bands (ev):

   -43.2968 -42.1434   1.6370   8.5344  14.4736  15.5262  17.6681

          k =-0.0865 0.6587-0.4680 (   405 PWs)   bands (ev):

   -43.0508 -42.4685   3.1588   5.5504  12.4029  17.2334  17.2549

          k =-0.2773 0.6587-0.2773 (   406 PWs)   bands (ev):

   -43.0499 -42.4555   4.0631   5.0102   9.8951  16.5834  19.2817

          k =-0.0260 0.0260 0.3554 (   390 PWs)   bands (ev):

   -43.3227 -42.1038   1.3794  11.2477  11.8619  16.4936  18.6466

          k =-0.0521-0.1386 0.5200 (   406 PWs)   bands (ev):

   -43.0974 -42.4232   2.4906   7.5840  12.4698  15.3379  18.5205

          k = 0.0781 0.6847-0.3033 (   414 PWs)   bands (ev):

   -42.7774 -42.7774   4.5015   4.5015  13.8905  13.8905  19.5520

          k =-0.0865 0.8494-0.2773 (   410 PWs)   bands (ev):

   -43.0623 -42.4217   3.5787   6.5515  11.0727  14.4657  17.0444

          k = 0.6326-0.6326 0.2512 (   408 PWs)   bands (ev):

   -43.2767 -42.1829   2.5999   6.7550   9.8831  16.9091  19.3733

          k = 0.4680-0.4680 0.2773 (   408 PWs)   bands (ev):

   -43.0351 -42.4739   4.5229   4.8114   8.4143  16.2759  22.0554

          k =-0.0521 0.0521 0.7107 (   414 PWs)   bands (ev):

   -43.0872 -42.4163   3.5843   8.5317  11.0005  11.0248  16.6275

          k = 0.0781 0.8754-0.1126 (   406 PWs)   bands (ev):

   -42.7302 -42.7302   5.7792   5.7792  11.3551  11.3551  15.9073

          k = 0.0781-0.0781-1.0661 (   418 PWs)   bands (ev):

   -42.7521 -42.7521   8.2526   8.2526   8.2526   8.2526  14.3054

          k = 0.0000 0.1907 0.1907 (   400 PWs)   bands (ev):

   -43.4560 -41.9771   1.0028  10.8660  16.1126  17.0269  17.2580

          k = 0.0000 0.3814 0.3814 (   398 PWs)   bands (ev):

   -43.3795 -41.9949   1.6978   8.8395  12.0857  15.7438  16.2930

          k = 0.0000-0.5721-0.5721 (   392 PWs)   bands (ev):

   -43.3148 -42.0003   2.2812   8.0782   9.8652  15.4821  15.9520

          k =-0.1386 0.1386-0.3293 (   395 PWs)   bands (ev):

   -43.1264 -42.3924   1.8780   9.3985  11.7725  14.9147  21.0270

          k =-0.1907-0.3814-0.1907 (   395 PWs)   bands (ev):

   -43.3693 -41.9914   1.5389   9.2980  12.6196  15.6162  17.4208

          k =-0.2688-0.6847 0.4940 (   405 PWs)   bands (ev):

   -42.8093 -42.7558   3.3083   5.7925  11.4260  16.2259  19.4586

          k =-0.1647-0.5982-0.7368 (   405 PWs)   bands (ev):

   -43.2536 -42.1692   2.5170   7.1657  10.4217  16.1508  16.8313

          k =-0.1907 0.5721 0.7628 (   405 PWs)   bands (ev):

   -43.3306 -42.0375   2.6277   8.1253   8.5401  16.1771  16.5670

          k =-0.3814 0.3814 0.7628 (   406 PWs)   bands (ev):

   -43.2958 -42.0515   4.9001   4.9001   7.8231  16.8984  18.2324

          k = 0.0260 0.5461 0.2167 (   406 PWs)   bands (ev):

   -43.2884 -42.1555   2.1841   9.2276  11.4422  12.8779  16.8844

          k = 0.0260-0.4075-0.7368 (   414 PWs)   bands (ev):

   -43.2701 -42.1833   2.9453   8.4545   9.0742  14.2282  16.2167

          k =-0.2688-0.8754 0.3033 (   410 PWs)   bands (ev):

   -42.7863 -42.7433   4.1320   5.6354  11.1687  15.9568  17.4796

          k =-0.2167 0.4075 0.9275 (   410 PWs)   bands (ev):

   -43.2781 -42.1731   3.7270   7.2992   9.8125  12.7429  16.6388

          k = 0.6847 0.4595 0.6847 (   408 PWs)   bands (ev):

   -42.8448 -42.7253   2.9009   8.2486   8.2486  15.1178  23.8819

          k = 0.5982 0.5461-0.3554 (   408 PWs)   bands (ev):

   -43.2458 -42.1740   3.8188   6.1712   7.1675  16.6214  20.6011

          k = 0.0521-0.2428-0.9015 (   406 PWs)   bands (ev):

   -43.0558 -42.4020   4.9377   8.2123   8.8135  12.8771  12.9830

     the Fermi energy is     4.8414 ev

!    total energy              =     -29.80430231 Ry
     total all-electron energy =       -29.804325 Ry
     estimated scf accuracy    <          1.2E-12 Ry
     smearing contrib. (-TS)   =      -0.00036589 Ry
     internal energy E=F+TS    =     -29.80393642 Ry

     The total energy is F=E-TS. E is the sum of the following terms:
     one-electron contribution =     -16.82993524 Ry
     hartree contribution      =       6.80061598 Ry
     xc contribution           =      -7.32830379 Ry
     ewald contribution        =     -12.59736624 Ry
     one-center paw contrib.   =       0.15105288 Ry

     convergence has been achieved in   3 iterations

     Forces acting on atoms (cartesian axes, Ry/au):

     atom    1 type  1   force =    -0.00000000   -0.00000000    0.00000000
     atom    2 type  1   force =     0.00000000    0.00000000   -0.00000000

     Total force =     0.000000     Total SCF correction =     0.000000


     Computing stress (Cartesian axis) and pressure

          total   stress  (Ry/bohr**3)                   (kbar)     P=        0.00
   0.00000001  -0.00000002   0.00000002            0.00       -0.00        0.00
  -0.00000002   0.00000001  -0.00000002           -0.00        0.00       -0.00
   0.00000002  -0.00000002   0.00000001            0.00       -0.00        0.00

     Energy error            =      4.8E-07 Ry
     Gradient error          =      2.6E-31 Ry/Bohr
     Cell gradient error     =      3.5E-03 kbar

     bfgs converged in   6 scf cycles and   5 bfgs steps
     (criteria: energy <  1.0E-04 Ry, force <  1.0E-03 Ry/Bohr, cell <  5.0E-01 kbar)

     End of BFGS Geometry Optimization

     Final enthalpy           =     -29.8043023065 Ry

     File ./tmp/Li_BCC.bfgs deleted, as requested
Begin final coordinates
     new unit-cell volume =    122.31722 a.u.^3 (    18.12554 Ang^3 )
     density =      1.27159 g/cm^3

CELL_PARAMETERS (alat=  6.63000000)
   0.474486886   0.399451915   0.474486886
  -0.474486886   0.474486886   0.399451915
  -0.399451915  -0.474486886   0.474486886

ATOMIC_POSITIONS (crystal)
Li               0.0000000000       -0.0000000000        0.0000000000
Li               0.5000000000        0.5000000000        0.5000000000
End final coordinates



     Writing config-only to output data dir ./tmp/Li_BCC.save/ :
     XML data file

     Final scf calculation at the relaxed structure.
     The G-vectors are recalculated for the final unit cell
     Results may differ from those at the preceding step.

     Parallelization info
     --------------------
     sticks:   dense  smooth     PW     G-vecs:    dense   smooth      PW
     Min         156      62     22                 2695      666     142
     Max         157      63     23                 2696      667     143
     Sum         627     249     91                10781     2665     569

     Using Slab Decomposition



     bravais-lattice index     =            3
     lattice parameter (alat)  =       6.6300  a.u.
     unit-cell volume          =     122.3172 (a.u.)^3
     number of atoms/cell      =            2
     number of atomic types    =            1
     number of electrons       =         6.00
     number of Kohn-Sham states=            7
     kinetic-energy cutoff     =      30.0000  Ry
     charge density cutoff     =     300.0000  Ry
     scf convergence threshold =      1.0E-10
     mixing beta               =       0.7000
     number of iterations used =            8  plain     mixing
     press convergence thresh. =      5.0E-01
     Exchange-correlation= SLA  PW   PBX  PBC
                           (   1   4   3   4   0   0   0)

     celldm(1)=   6.630000  celldm(2)=   0.000000  celldm(3)=   0.000000
     celldm(4)=   0.000000  celldm(5)=   0.000000  celldm(6)=   0.000000

     crystal axes: (cart. coord. in units of alat)
               a(1) = (   0.474487   0.399452   0.474487 )  
               a(2) = (  -0.474487   0.474487   0.399452 )  
               a(3) = (  -0.399452  -0.474487   0.474487 )  

     reciprocal axes: (cart. coord. in units 2 pi/alat)
               b(1) = (  0.988003  0.156242  0.988003 )  
               b(2) = ( -0.988003  0.988003  0.156242 )  
               b(3) = ( -0.156242 -0.988003  0.988003 )  


     PseudoPot. # 1 for Li read from file:
     ../pseudopotentials/Li.pbe-s-kjpaw_psl.1.0.0.UPF
     MD5 check sum: d3662511b3860c829f7212fdb89d6128
     Pseudo is Projector augmented-wave, Zval =  3.0
     Generated using &quot;atomic&quot; code by A. Dal Corso  v.6.3
     Shape of augmentation charge: PSQ
     Using radial grid of 1017 points,  4 beta functions with: 
                l(1) =   0
                l(2) =   0
                l(3) =   1
                l(4) =   1
     Q(r) pseudized with 0 coefficients 


     atomic species   valence    mass     pseudopotential
     Li                3.00     6.94000     Li( 1.00)

     12 Sym. Ops., with inversion, found



   Cartesian axes

     site n.     atom                  positions (alat units)
         1        Li     tau(   1) = (  -0.0000000  -0.0000000   0.0000000  )
         2        Li     tau(   2) = (  -0.1997260   0.1997260   0.6742128  )

     number of k points=    32  Gaussian smearing, width (Ry)=  0.0100
                       cart. coord. in units 2pi/alat
        k(    1) = (   0.0000000   0.0000000   0.0000000), wk =   0.0092593
        k(    2) = (  -0.0260403  -0.1646672   0.1646672), wk =   0.0555556
        k(    3) = (  -0.0520807  -0.3293343   0.3293343), wk =   0.0555556
        k(    4) = (   0.0781210   0.4940015  -0.4940015), wk =   0.0277778
        k(    5) = (  -0.2167478  -0.1646672   0.3553746), wk =   0.1111111
        k(    6) = (  -0.0865462   0.6586686  -0.4679611), wk =   0.1111111
        k(    7) = (  -0.2772536   0.6586686  -0.2772536), wk =   0.0555556
        k(    8) = (  -0.0260403   0.0260403   0.3553746), wk =   0.0555556
        k(    9) = (  -0.0520807  -0.1386268   0.5200418), wk =   0.1111111
        k(   10) = (   0.0781210   0.6847089  -0.3032940), wk =   0.0555556
        k(   11) = (  -0.0865462   0.8493761  -0.2772536), wk =   0.1111111
        k(   12) = (   0.6326283  -0.6326283   0.2512133), wk =   0.0555556
        k(   13) = (   0.4679611  -0.4679611   0.2772536), wk =   0.0555556
        k(   14) = (  -0.0520807   0.0520807   0.7107493), wk =   0.0555556
        k(   15) = (   0.0781210   0.8754164  -0.1125865), wk =   0.0555556
        k(   16) = (   0.0781210  -0.0781210  -1.0661239), wk =   0.0092593
        k(   17) = (   0.0000000   0.1907075   0.1907075), wk =   0.0555556
        k(   18) = (   0.0000000   0.3814150   0.3814150), wk =   0.0555556
        k(   19) = (   0.0000000  -0.5721224  -0.5721224), wk =   0.0277778
        k(   20) = (  -0.1386268   0.1386268  -0.3293343), wk =   0.0555556
        k(   21) = (  -0.1907075  -0.3814150  -0.1907075), wk =   0.0555556
        k(   22) = (  -0.2688285  -0.6847089   0.4940015), wk =   0.1111111
        k(   23) = (  -0.1646672  -0.5981628  -0.7367896), wk =   0.1111111
        k(   24) = (  -0.1907075   0.5721224   0.7628299), wk =   0.1111111
        k(   25) = (  -0.3814150   0.3814150   0.7628299), wk =   0.0185185
        k(   26) = (   0.0260403   0.5460821   0.2167478), wk =   0.1111111
        k(   27) = (   0.0260403  -0.4074553  -0.7367896), wk =   0.0555556
        k(   28) = (  -0.2688285  -0.8754164   0.3032940), wk =   0.0555556
        k(   29) = (  -0.2167478   0.4074553   0.9274971), wk =   0.0555556
        k(   30) = (   0.6847089   0.4595359   0.6847089), wk =   0.0185185
        k(   31) = (   0.5981628   0.5460821  -0.3553746), wk =   0.0555556
        k(   32) = (   0.0520807  -0.2427881  -0.9014567), wk =   0.0555556

     Dense  grid:    10781 G-vectors     FFT dimensions: (  30,  30,  30)

     Smooth grid:     2665 G-vectors     FFT dimensions: (  20,  20,  20)

     Estimated max dynamical RAM per process >       4.79 MB

     Estimated total dynamical RAM >      19.17 MB

     Initial potential from superposition of free atoms

     starting charge       5.9908, renormalised to       6.0000
     Starting wfcs are   10 randomized atomic wfcs
     Checking if some PAW data can be deallocated... 

     total cpu time spent up to now is        1.9 secs

     Self-consistent Calculation

     iteration #  1     ecut=    30.00 Ry     beta= 0.70
     Davidson diagonalization with overlap
     ethr =  1.00E-06,  avg # of iterations =  9.4

     total cpu time spent up to now is        2.0 secs

     total energy              =     -29.77262811 Ry
     estimated scf accuracy    <       0.02076290 Ry

     iteration #  2     ecut=    30.00 Ry     beta= 0.70
     Davidson diagonalization with overlap
     ethr =  3.46E-04,  avg # of iterations =  1.0

     total cpu time spent up to now is        2.0 secs

     total energy              =     -29.77364786 Ry
     estimated scf accuracy    <       0.00084424 Ry

     iteration #  3     ecut=    30.00 Ry     beta= 0.70
     Davidson diagonalization with overlap
     ethr =  1.41E-05,  avg # of iterations =  2.0

     total cpu time spent up to now is        2.1 secs

     total energy              =     -29.77375977 Ry
     estimated scf accuracy    <       0.00000788 Ry

     iteration #  4     ecut=    30.00 Ry     beta= 0.70
     Davidson diagonalization with overlap
     ethr =  1.31E-07,  avg # of iterations =  1.1

     total cpu time spent up to now is        2.1 secs

     total energy              =     -29.77375997 Ry
     estimated scf accuracy    <       0.00000006 Ry

     iteration #  5     ecut=    30.00 Ry     beta= 0.70
     Davidson diagonalization with overlap
     ethr =  9.73E-10,  avg # of iterations =  1.9

     total cpu time spent up to now is        2.1 secs

     End of self-consistent calculation

          k = 0.0000 0.0000 0.0000 (   339 PWs)   bands (ev):

   -43.5032 -42.2203   0.8985  12.3107  17.3185  17.3185  19.4101

          k =-0.0260-0.1647 0.1647 (   351 PWs)   bands (ev):

   -43.4651 -42.3618   1.1868  11.1709  14.2783  16.0950  19.7938

          k =-0.0521-0.3293 0.3293 (   340 PWs)   bands (ev):

   -43.1703 -42.5786   2.2444   7.2518  15.4144  15.5211  17.5919

          k = 0.0781 0.4940-0.4940 (   334 PWs)   bands (ev):

   -42.8560 -42.8560   4.1981   4.1981  15.9396  15.9396  17.6831

          k =-0.2167-0.1647 0.3554 (   343 PWs)   bands (ev):

   -43.3913 -42.3555   1.6749   8.5250  14.4985  15.5116  17.6943

          k =-0.0865 0.6587-0.4680 (   337 PWs)   bands (ev):

   -43.1232 -42.5877   3.1887   5.5767  12.4263  17.2257  17.3246

          k =-0.2773 0.6587-0.2773 (   336 PWs)   bands (ev):

   -43.1242 -42.5687   4.0657   5.0412   9.9440  16.6540  19.2657

          k =-0.0260 0.0260 0.3554 (   350 PWs)   bands (ev):

   -43.4443 -42.3625   1.4191  11.2249  11.8625  16.4940  18.6768

          k =-0.0521-0.1386 0.5200 (   343 PWs)   bands (ev):

   -43.1856 -42.5689   2.5325   7.5924  12.4776  15.3659  18.5420

          k = 0.0781 0.6847-0.3033 (   344 PWs)   bands (ev):

   -42.8806 -42.8806   4.5297   4.5297  13.9298  13.9298  19.5502

          k =-0.0865 0.8494-0.2773 (   337 PWs)   bands (ev):

   -43.1305 -42.5497   3.5921   6.5720  11.1419  14.4616  17.0625

          k = 0.6326-0.6326 0.2512 (   340 PWs)   bands (ev):

   -43.3401 -42.3618   2.6248   6.7537   9.8854  17.0579  19.3603

          k = 0.4680-0.4680 0.2773 (   336 PWs)   bands (ev):

   -43.1100 -42.5854   4.5633   4.8207   8.4164  16.4392  22.0365

          k =-0.0521 0.0521 0.7107 (   340 PWs)   bands (ev):

   -43.1456 -42.5498   3.6111   8.5337  11.0025  11.0411  16.7608

          k = 0.0781 0.8754-0.1126 (   330 PWs)   bands (ev):

   -42.8113 -42.8113   5.7932   5.7932  11.3811  11.3812  15.9512

          k = 0.0781-0.0781-1.0661 (   334 PWs)   bands (ev):

   -42.8146 -42.8146   8.2555   8.2555   8.2555   8.2555  14.3923

          k = 0.0000 0.1907 0.1907 (   347 PWs)   bands (ev):

   -43.4912 -42.2955   1.0846  10.8295  16.1167  17.0211  17.2985

          k = 0.0000 0.3814 0.3814 (   349 PWs)   bands (ev):

   -43.4568 -42.3058   1.7269   8.8117  12.1417  15.7458  16.2923

          k = 0.0000-0.5721-0.5721 (   330 PWs)   bands (ev):

   -43.3772 -42.2265   2.2846   8.0552   9.9496  15.4825  15.9785

          k =-0.1386 0.1386-0.3293 (   347 PWs)   bands (ev):

   -43.2413 -42.5705   1.9292   9.3995  11.7764  14.9121  20.8858

          k =-0.1907-0.3814-0.1907 (   343 PWs)   bands (ev):

   -43.4417 -42.2846   1.5766   9.2700  12.6214  15.6183  17.5252

          k =-0.2688-0.6847 0.4940 (   337 PWs)   bands (ev):

   -42.8965 -42.8317   3.3573   5.8061  11.4524  16.2880  19.4722

          k =-0.1647-0.5982-0.7368 (   342 PWs)   bands (ev):

   -43.3397 -42.3679   2.5298   7.1618  10.4753  16.1759  16.8259

          k =-0.1907 0.5721 0.7628 (   333 PWs)   bands (ev):

   -43.3773 -42.2492   2.6418   8.1079   8.5600  16.1897  16.7219

          k =-0.3814 0.3814 0.7628 (   331 PWs)   bands (ev):

   -43.3844 -42.2155   4.9024   4.9024   7.8100  17.0876  18.2360

          k = 0.0260 0.5461 0.2167 (   335 PWs)   bands (ev):

   -43.3454 -42.3136   2.2156   9.2198  11.4687  12.8720  16.9672

          k = 0.0260-0.4075-0.7368 (   331 PWs)   bands (ev):

   -43.3070 -42.3041   2.9488   8.4473   9.1321  14.2307  16.3173

          k =-0.2688-0.8754 0.3033 (   345 PWs)   bands (ev):

   -42.8840 -42.8746   4.1697   5.6370  11.2176  15.9580  17.5167

          k =-0.2167 0.4075 0.9275 (   332 PWs)   bands (ev):

   -43.3147 -42.2934   3.7398   7.3019   9.7920  12.7451  16.4945

          k = 0.6847 0.4595 0.6847 (   331 PWs)   bands (ev):

   -42.8572 -42.8348   2.9947   8.2504   8.2504  15.1817  23.8900

          k = 0.5982 0.5461-0.3554 (   332 PWs)   bands (ev):

   -43.2944 -42.3385   3.8219   6.1813   7.1789  16.8271  20.6124

          k = 0.0521-0.2428-0.9015 (   332 PWs)   bands (ev):

   -43.1148 -42.5019   4.9409   8.2272   8.8230  12.8802  12.9797

     the Fermi energy is     4.8491 ev

!    total energy              =     -29.77375998 Ry
     total all-electron energy =       -29.773783 Ry
     estimated scf accuracy    <          9.9E-11 Ry
     smearing contrib. (-TS)   =      -0.00036362 Ry
     internal energy E=F+TS    =     -29.77339636 Ry

     The total energy is F=E-TS. E is the sum of the following terms:
     one-electron contribution =     -16.76428315 Ry
     hartree contribution      =       6.73795077 Ry
     xc contribution           =      -7.29681533 Ry
     ewald contribution        =     -12.59736624 Ry
     one-center paw contrib.   =       0.14711759 Ry

     convergence has been achieved in   5 iterations

     Forces acting on atoms (cartesian axes, Ry/au):

     atom    1 type  1   force =     0.00000000    0.00000000   -0.00000000
     atom    2 type  1   force =    -0.00000000   -0.00000000    0.00000000

     Total force =     0.000000     Total SCF correction =     0.000000


     Computing stress (Cartesian axis) and pressure

          total   stress  (Ry/bohr**3)                   (kbar)     P=      -93.06
  -0.00063258  -0.00106568   0.00106568          -93.06     -156.77      156.77
  -0.00106568  -0.00063258  -0.00106568         -156.77      -93.06     -156.77
   0.00106568  -0.00106568  -0.00063258          156.77     -156.77      -93.06


     Writing all to output data dir ./tmp/Li_BCC.save/ :
     XML data file, charge density, pseudopotentials, collected wavefunctions

     init_run     :      0.12s CPU      0.17s WALL (       2 calls)
     electrons    :      1.41s CPU      1.63s WALL (       7 calls)
     update_pot   :      0.05s CPU      0.05s WALL (       5 calls)
     forces       :      0.03s CPU      0.03s WALL (       7 calls)
     stress       :      0.11s CPU      0.12s WALL (       7 calls)

     Called by init_run:
     wfcinit      :      0.03s CPU      0.04s WALL (       2 calls)
     potinit      :      0.03s CPU      0.05s WALL (       2 calls)
     hinit0       :      0.05s CPU      0.06s WALL (       2 calls)

     Called by electrons:
     c_bands      :      0.90s CPU      1.03s WALL (      32 calls)
     sum_band     :      0.20s CPU      0.23s WALL (      32 calls)
     v_of_rho     :      0.06s CPU      0.10s WALL (      35 calls)
     newd         :      0.04s CPU      0.05s WALL (      35 calls)
     PAW_pot      :      0.30s CPU      0.33s WALL (      40 calls)
     mix_rho      :      0.01s CPU      0.01s WALL (      32 calls)

     Called by c_bands:
     init_us_2    :      0.03s CPU      0.03s WALL (    2720 calls)
     cegterg      :      0.87s CPU      0.99s WALL (    1024 calls)

     Called by *egterg:
     cdiaghg      :      0.11s CPU      0.12s WALL (    2795 calls)
     h_psi        :      0.60s CPU      0.69s WALL (    3147 calls)
     s_psi        :      0.03s CPU      0.03s WALL (    3147 calls)
     g_psi        :      0.00s CPU      0.00s WALL (    2059 calls)

     Called by h_psi:
     h_psi:calbec :      0.04s CPU      0.04s WALL (    3147 calls)
     vloc_psi     :      0.53s CPU      0.61s WALL (    3147 calls)
     add_vuspsi   :      0.03s CPU      0.03s WALL (    3147 calls)

     General routines
     calbec       :      0.08s CPU      0.09s WALL (    5451 calls)
     fft          :      0.04s CPU      0.06s WALL (     506 calls)
     ffts         :      0.00s CPU      0.00s WALL (      67 calls)
     fftw         :      0.47s CPU      0.55s WALL (   44400 calls)
     interpolate  :      0.01s CPU      0.01s WALL (      35 calls)

     Parallel routines

     PWSCF        :      1.81s CPU      2.15s WALL


   This run was terminated on:  13:30:55   3Feb2025            

=------------------------------------------------------------------------------=
   JOB DONE.
=------------------------------------------------------------------------------=
