
     Program PWSCF v.7.3.1 starts on  3Feb2025 at 13:58:54 

     This program is part of the open-source Quantum ESPRESSO suite
     for quantum simulation of materials; please cite
         "P. Giannozzi et al., J. Phys.:Condens. Matter 21 395502 (2009);
         "P. Giannozzi et al., J. Phys.:Condens. Matter 29 465901 (2017);
         "P. Giannozzi et al., J. Chem. Phys. 152 154105 (2020);
          URL http://www.quantum-espresso.org", 
     in publications or presentations arising from this work. More details at
     http://www.quantum-espresso.org/quote

     Parallel version (MPI), running on     4 processors

     MPI processes distributed on     1 nodes
     0 MiB available memory on the printing compute node when the environment starts

     Reading input from li_vc_relax_calculation.in

     Current dimensions of program PWSCF are:
     Max number of different atomic species (ntypx) = 10
     Max number of k-points (npk) =  40000
     Max angular momentum in pseudopotentials (lmaxx) =  4
     Found identity + ( -0.5000 -0.5000 -0.5000) symmetry
     This is a supercell, fractional translations are disabled

     R & G space division:  proc/nbgrp/npool/nimage =       4
     Subspace diagonalization in iterative solution of the eigenvalue problem:
     a serial algorithm will be used


     Parallelization info
     --------------------
     sticks:   dense  smooth     PW     G-vecs:    dense   smooth      PW
     Min         183     157     50                 3155     2536     436
     Max         185     158     51                 3156     2538     437
     Sum         735     631    201                12623    10149    1745

     Using Slab Decomposition



     bravais-lattice index     =            3
     lattice parameter (alat)  =       6.6000  a.u.
     unit-cell volume          =     143.7480 (a.u.)^3
     number of atoms/cell      =            2
     number of atomic types    =            1
     number of electrons       =         6.00
     number of Kohn-Sham states=            7
     kinetic-energy cutoff     =      65.0000  Ry
     charge density cutoff     =     300.0000  Ry
     scf convergence threshold =      1.0E-08
     mixing beta               =       0.7000
     number of iterations used =            8  plain     mixing
     energy convergence thresh.=      1.0E-04
     force convergence thresh. =      1.0E-03
     press convergence thresh. =      5.0E-01
     Exchange-correlation= SLA  PW   PBX  PBC
                           (   1   4   3   4   0   0   0)
     nstep                     =           50


     celldm(1)=   6.600000  celldm(2)=   0.000000  celldm(3)=   0.000000
     celldm(4)=   0.000000  celldm(5)=   0.000000  celldm(6)=   0.000000

     crystal axes: (cart. coord. in units of alat)
               a(1) = (   0.500000   0.500000   0.500000 )  
               a(2) = (  -0.500000   0.500000   0.500000 )  
               a(3) = (  -0.500000  -0.500000   0.500000 )  

     reciprocal axes: (cart. coord. in units 2 pi/alat)
               b(1) = (  1.000000  0.000000  1.000000 )  
               b(2) = ( -1.000000  1.000000  0.000000 )  
               b(3) = (  0.000000 -1.000000  1.000000 )  


     PseudoPot. # 1 for Li read from file:
     ../pseudopotentials/Li.pbe-s-kjpaw_psl.1.0.0.UPF
     MD5 check sum: d3662511b3860c829f7212fdb89d6128
     Pseudo is Projector augmented-wave, Zval =  3.0
     Generated using &quot;atomic&quot; code by A. Dal Corso  v.6.3
     Shape of augmentation charge: PSQ
     Using radial grid of 1017 points,  4 beta functions with: 
                l(1) =   0
                l(2) =   0
                l(3) =   1
                l(4) =   1
     Q(r) pseudized with 0 coefficients 


     atomic species   valence    mass     pseudopotential
     Li                3.00     6.94000     Li( 1.00)

     12 Sym. Ops., with inversion, found



   Cartesian axes

     site n.     atom                  positions (alat units)
         1        Li     tau(   1) = (   0.0000000   0.0000000   0.0000000  )
         2        Li     tau(   2) = (  -0.2500000   0.2500000   0.7500000  )

     number of k points=    32  Gaussian smearing, width (Ry)=  0.0100
                       cart. coord. in units 2pi/alat
        k(    1) = (   0.0000000   0.0000000   0.0000000), wk =   0.0092593
        k(    2) = (   0.0000000  -0.1666667   0.1666667), wk =   0.0555556
        k(    3) = (   0.0000000  -0.3333333   0.3333333), wk =   0.0555556
        k(    4) = (   0.0000000   0.5000000  -0.5000000), wk =   0.0277778
        k(    5) = (  -0.1666667  -0.1666667   0.3333333), wk =   0.1111111
        k(    6) = (  -0.1666667   0.6666667  -0.5000000), wk =   0.1111111
        k(    7) = (  -0.3333333   0.6666667  -0.3333333), wk =   0.0555556
        k(    8) = (   0.0000000   0.0000000   0.3333333), wk =   0.0555556
        k(    9) = (   0.0000000  -0.1666667   0.5000000), wk =   0.1111111
        k(   10) = (   0.0000000   0.6666667  -0.3333333), wk =   0.0555556
        k(   11) = (  -0.1666667   0.8333333  -0.3333333), wk =   0.1111111
        k(   12) = (   0.6666667  -0.6666667   0.3333333), wk =   0.0555556
        k(   13) = (   0.5000000  -0.5000000   0.3333333), wk =   0.0555556
        k(   14) = (   0.0000000   0.0000000   0.6666667), wk =   0.0555556
        k(   15) = (   0.0000000   0.8333333  -0.1666667), wk =   0.0555556
        k(   16) = (   0.0000000   0.0000000  -1.0000000), wk =   0.0092593
        k(   17) = (   0.0000000   0.1666667   0.1666667), wk =   0.0555556
        k(   18) = (   0.0000000   0.3333333   0.3333333), wk =   0.0555556
        k(   19) = (   0.0000000  -0.5000000  -0.5000000), wk =   0.0277778
        k(   20) = (  -0.1666667   0.1666667  -0.3333333), wk =   0.0555556
        k(   21) = (  -0.1666667  -0.3333333  -0.1666667), wk =   0.0555556
        k(   22) = (  -0.1666667  -0.6666667   0.5000000), wk =   0.1111111
        k(   23) = (  -0.1666667  -0.5000000  -0.6666667), wk =   0.1111111
        k(   24) = (  -0.1666667   0.5000000   0.6666667), wk =   0.1111111
        k(   25) = (  -0.3333333   0.3333333   0.6666667), wk =   0.0185185
        k(   26) = (   0.0000000   0.5000000   0.1666667), wk =   0.1111111
        k(   27) = (   0.0000000  -0.3333333  -0.6666667), wk =   0.0555556
        k(   28) = (  -0.1666667  -0.8333333   0.3333333), wk =   0.0555556
        k(   29) = (  -0.1666667   0.3333333   0.8333333), wk =   0.0555556
        k(   30) = (   0.6666667   0.3333333   0.6666667), wk =   0.0185185
        k(   31) = (   0.5000000   0.5000000  -0.3333333), wk =   0.0555556
        k(   32) = (   0.0000000  -0.1666667  -0.8333333), wk =   0.0555556

     Dense  grid:    12623 G-vectors     FFT dimensions: (  32,  32,  32)

     Smooth grid:    10149 G-vectors     FFT dimensions: (  30,  30,  30)

     Estimated max dynamical RAM per process >       6.27 MB

     Estimated total dynamical RAM >      25.08 MB

     Initial potential from superposition of free atoms

     starting charge       5.9908, renormalised to       6.0000
     Starting wfcs are   10 randomized atomic wfcs
     Checking if some PAW data can be deallocated... 

     total cpu time spent up to now is        0.2 secs

     Self-consistent Calculation

     iteration #  1     ecut=    65.00 Ry     beta= 0.70
     Davidson diagonalization with overlap
     ethr =  1.00E-02,  avg # of iterations =  3.6

     Threshold (ethr) on eigenvalues was too large:
     Diagonalizing with lowered threshold

     Davidson diagonalization with overlap
     ethr =  1.02E-04,  avg # of iterations =  2.2

     total cpu time spent up to now is        0.6 secs

     total energy              =     -29.86972589 Ry
     estimated scf accuracy    <       0.00596738 Ry

     iteration #  2     ecut=    65.00 Ry     beta= 0.70
     Davidson diagonalization with overlap
     ethr =  9.95E-05,  avg # of iterations =  1.0

     total cpu time spent up to now is        0.7 secs

     total energy              =     -29.86988829 Ry
     estimated scf accuracy    <       0.00031334 Ry

     iteration #  3     ecut=    65.00 Ry     beta= 0.70
     Davidson diagonalization with overlap
     ethr =  5.22E-06,  avg # of iterations =  2.5

     total cpu time spent up to now is        0.8 secs

     total energy              =     -29.86993140 Ry
     estimated scf accuracy    <       0.00000570 Ry

     iteration #  4     ecut=    65.00 Ry     beta= 0.70
     Davidson diagonalization with overlap
     ethr =  9.50E-08,  avg # of iterations =  2.1

     total cpu time spent up to now is        0.9 secs

     total energy              =     -29.86993265 Ry
     estimated scf accuracy    <       0.00000032 Ry

     iteration #  5     ecut=    65.00 Ry     beta= 0.70
     Davidson diagonalization with overlap
     ethr =  5.35E-09,  avg # of iterations =  2.1

     total cpu time spent up to now is        1.1 secs

     End of self-consistent calculation

          k = 0.0000 0.0000 0.0000 (  1253 PWs)   bands (ev):

   -45.6635 -43.6336  -0.4930  10.7389  13.9181  13.9181  18.5060

          k = 0.0000-0.1667 0.1667 (  1274 PWs)   bands (ev):

   -45.5355 -43.7786  -0.0563  10.5007  13.6590  13.8134  13.8383

          k = 0.0000-0.3333 0.3333 (  1280 PWs)   bands (ev):

   -45.1805 -44.1675   1.3112   7.1824  12.9710  13.4115  13.6609

          k = 0.0000 0.5000-0.5000 (  1272 PWs)   bands (ev):

   -44.6824 -44.6824   3.7134   3.7134  12.7750  12.7750  14.0624

          k =-0.1667-0.1667 0.3333 (  1276 PWs)   bands (ev):

   -45.5213 -43.7825   0.4395   8.8327  10.2387  12.1728  14.7243

          k =-0.1667 0.6667-0.5000 (  1267 PWs)   bands (ev):

   -45.1666 -44.1745   2.1928   5.7519   9.2626  12.6026  14.9400

          k =-0.3333 0.6667-0.3333 (  1256 PWs)   bands (ev):

   -45.1597 -44.1780   2.9925   5.2845   7.3517  12.1083  16.7431

          k = 0.0000 0.0000 0.3333 (  1269 PWs)   bands (ev):

   -45.5277 -43.7798   0.1927  10.3784  11.6144  12.5263  12.8929

          k = 0.0000-0.1667 0.5000 (  1272 PWs)   bands (ev):

   -45.1749 -44.1671   1.6042   7.5588  11.1218  11.4349  13.3867

          k = 0.0000 0.6667-0.3333 (  1282 PWs)   bands (ev):

   -44.6796 -44.6796   4.0385   4.0385  11.2750  11.2750  15.0175

          k =-0.1667 0.8333-0.3333 (  1268 PWs)   bands (ev):

   -45.1624 -44.1703   2.5883   6.6688   8.2703  12.3020  12.9660

          k = 0.6667-0.6667 0.3333 (  1277 PWs)   bands (ev):

   -45.5086 -43.7877   1.2880   6.8602   7.4432  11.7471  17.5417

          k = 0.5000-0.5000 0.3333 (  1258 PWs)   bands (ev):

   -45.1584 -44.1818   3.5385   4.8316   6.2873  12.0261  18.8959

          k = 0.0000 0.0000 0.6667 (  1260 PWs)   bands (ev):

   -45.1638 -44.1664   2.5552   8.2240   8.4493  10.1254  12.3442

          k = 0.0000 0.8333-0.1667 (  1270 PWs)   bands (ev):

   -44.6740 -44.6740   5.1130   5.1130   9.3697   9.3697  12.9652

          k = 0.0000 0.0000-1.0000 (  1264 PWs)   bands (ev):

   -44.6713 -44.6712   7.0319   7.0319   7.0319   7.0319  11.9796

          k = 0.0000 0.1667 0.1667 (  1274 PWs)   bands (ev):

   -45.6549 -43.6353  -0.2684  10.1949  11.9626  12.5708  17.5435

          k = 0.0000 0.3333 0.3333 (  1280 PWs)   bands (ev):

   -45.6376 -43.6388   0.4010   8.3340   9.2506  10.9610  17.0944

          k = 0.0000-0.5000-0.5000 (  1272 PWs)   bands (ev):

   -45.6290 -43.6406   0.9497   6.6277   8.8400  10.3713  17.1214

          k =-0.1667 0.1667-0.3333 (  1276 PWs)   bands (ev):

   -45.1874 -44.1640   1.0163   9.1106  10.5104  13.0094  15.0927

          k =-0.1667-0.3333-0.1667 (  1276 PWs)   bands (ev):

   -45.6420 -43.6379   0.2265   8.6948   9.4692  11.8427  17.2383

          k =-0.1667-0.6667 0.5000 (  1267 PWs)   bands (ev):

   -44.6915 -44.6734   2.9602   5.1154   9.3787  12.9933  15.3479

          k =-0.1667-0.5000-0.6667 (  1267 PWs)   bands (ev):

   -45.5072 -43.7863   1.2674   7.2367   7.8486  11.0744  16.1486

          k =-0.1667 0.5000 0.6667 (  1267 PWs)   bands (ev):

   -45.6290 -43.6405   1.1838   5.6658   8.8363  11.2385  17.5404

          k =-0.3333 0.3333 0.6667 (  1256 PWs)   bands (ev):

   -45.6247 -43.6414   2.9374   2.9374   8.6393  11.5166  19.2118

          k = 0.0000 0.5000 0.1667 (  1272 PWs)   bands (ev):

   -45.5121 -43.7823   0.9495   8.0184   9.4653  11.6576  13.1008

          k = 0.0000-0.3333-0.6667 (  1282 PWs)   bands (ev):

   -45.5043 -43.7835   1.6268   6.2280   8.9978  11.1657  14.2936

          k =-0.1667-0.8333 0.3333 (  1268 PWs)   bands (ev):

   -44.6828 -44.6737   3.7105   5.0460   9.1405  12.7774  14.0537

          k =-0.1667 0.3333 0.8333 (  1268 PWs)   bands (ev):

   -45.5029 -43.7821   2.2037   4.9230  10.0381  11.6349  13.1908

          k = 0.6667 0.3333 0.6667 (  1277 PWs)   bands (ev):

   -44.6974 -44.6703   2.5891   7.0312   7.0312  12.0614  17.9415

          k = 0.5000 0.5000-0.3333 (  1258 PWs)   bands (ev):

   -45.5022 -43.7903   2.2907   4.8074   6.9699  11.5530  19.0300

          k = 0.0000-0.1667-0.8333 (  1270 PWs)   bands (ev):

   -45.1582 -44.1661   3.6563   6.1214   8.5856  11.7376  11.9840

     the Fermi energy is     4.0800 ev

!    total energy              =     -29.86993272 Ry
     total all-electron energy =       -29.869955 Ry
     estimated scf accuracy    <          8.9E-09 Ry
     smearing contrib. (-TS)   =      -0.00028587 Ry
     internal energy E=F+TS    =     -29.86964686 Ry

     The total energy is F=E-TS. E is the sum of the following terms:
     one-electron contribution =     -19.32890374 Ry
     hartree contribution      =       7.71168619 Ry
     xc contribution           =      -7.39981901 Ry
     ewald contribution        =     -11.01873119 Ry
     one-center paw contrib.   =       0.16612088 Ry

     convergence has been achieved in   5 iterations

     Forces acting on atoms (cartesian axes, Ry/au):

     atom    1 type  1   force =     0.00000000    0.00000000    0.00000000
     atom    2 type  1   force =     0.00000000    0.00000000    0.00000000

     Total force =     0.000000     Total SCF correction =     0.000000


     Computing stress (Cartesian axis) and pressure

          total   stress  (Ry/bohr**3)                   (kbar)     P=      218.57
   0.00148583  -0.00209556   0.00209556          218.57     -308.27      308.27
  -0.00209556   0.00148583  -0.00209556         -308.27      218.57     -308.27
   0.00209556  -0.00209556   0.00148583          308.27     -308.27      218.57


     BFGS Geometry Optimization
     Energy error            =      0.0E+00 Ry
     Gradient error          =      0.0E+00 Ry/Bohr
     Cell gradient error     =      3.1E+02 kbar

     number of scf cycles    =   1
     number of bfgs steps    =   0

     enthalpy           new  =     -29.8699327217 Ry

     new trust radius        =       0.1987368362 bohr
     new conv_thr            =       0.0000000100 Ry

     new unit-cell volume =    159.18311 a.u.^3 (    23.58850 Ang^3 )
     density =      0.97710 g/cm^3

CELL_PARAMETERS (alat=  6.60000000)
   0.518572928   0.466183959   0.518572928
  -0.518572928   0.518572928   0.466183959
  -0.466183959  -0.518572928   0.518572928

ATOMIC_POSITIONS (crystal)
Li               0.0000000000        0.0000000000        0.0000000000
Li               0.5000000000        0.5000000000        0.5000000000



     Writing config-only to output data dir ./tmp/Li_BCC.save/ :
     XML data file
     NEW-OLD atomic charge density approx. for the potential

     total cpu time spent up to now is        1.1 secs

     Self-consistent Calculation

     iteration #  1     ecut=    65.00 Ry     beta= 0.70
     Davidson diagonalization with overlap
     ethr =  1.00E-06,  avg # of iterations =  6.8

     total cpu time spent up to now is        1.4 secs

     total energy              =     -29.95863851 Ry
     estimated scf accuracy    <       0.00001840 Ry

     iteration #  2     ecut=    65.00 Ry     beta= 0.70
     Davidson diagonalization with overlap
     ethr =  3.07E-07,  avg # of iterations =  3.0

     total cpu time spent up to now is        1.5 secs

     total energy              =     -29.95861145 Ry
     estimated scf accuracy    <       0.00000219 Ry

     iteration #  3     ecut=    65.00 Ry     beta= 0.70
     Davidson diagonalization with overlap
     ethr =  3.66E-08,  avg # of iterations =  2.0

     total cpu time spent up to now is        1.6 secs

     total energy              =     -29.95860538 Ry
     estimated scf accuracy    <       0.00000060 Ry

     iteration #  4     ecut=    65.00 Ry     beta= 0.70
     Davidson diagonalization with overlap
     ethr =  1.01E-08,  avg # of iterations =  2.0

     total cpu time spent up to now is        1.8 secs

     End of self-consistent calculation

          k = 0.0000 0.0000 0.0000 (  1253 PWs)   bands (ev):

   -44.6204 -43.6872  -0.9108   9.4896  14.8784  15.1973  15.1973

          k =-0.0155-0.1537 0.1537 (  1274 PWs)   bands (ev):

   -44.5590 -43.7497  -0.5513   8.8230  11.6127  14.6522  14.7686

          k =-0.0311-0.3074 0.3074 (  1280 PWs)   bands (ev):

   -44.3895 -43.9217   0.5865   5.5273  11.9886  12.3340  13.2917

          k = 0.0466 0.4612-0.4612 (  1272 PWs)   bands (ev):

   -44.1563 -44.1563   2.5943   2.5943  12.3384  12.3384  13.2194

          k =-0.1848-0.1537 0.3230 (  1276 PWs)   bands (ev):

   -44.5430 -43.7551   0.1106   6.8041  10.5048  12.6422  12.8455

          k =-0.1071 0.6149-0.4456 (  1267 PWs)   bands (ev):

   -44.3734 -43.9304   1.6832   4.0069   9.0713  12.4906  13.5884

          k =-0.2764 0.6149-0.2764 (  1256 PWs)   bands (ev):

   -44.3652 -43.9347   2.7245   3.5078   6.8362  11.9521  15.3719

          k =-0.0155 0.0155 0.3230 (  1269 PWs)   bands (ev):

   -44.5502 -43.7514  -0.2184   8.7543  10.0177  12.2600  13.4237

          k =-0.0311-0.1382 0.4767 (  1272 PWs)   bands (ev):

   -44.3831 -43.9216   0.9532   5.9278   9.5796  11.3417  13.7321

          k = 0.0466 0.6304-0.2919 (  1282 PWs)   bands (ev):

   -44.1533 -44.1533   2.9810   2.9810  10.3534  10.3534  14.9575

          k =-0.1071 0.7841-0.2764 (  1268 PWs)   bands (ev):

   -44.3686 -43.9260   2.2213   4.9596   7.7059  11.4529  12.5755

          k = 0.5993-0.5993 0.2608 (  1277 PWs)   bands (ev):

   -44.5285 -43.7626   1.1606   5.3026   7.1467  11.4857  15.5561

          k = 0.4456-0.4456 0.2764 (  1258 PWs)   bands (ev):

   -44.3636 -43.9390   3.0354   3.2355   6.1585  11.1050  17.5615

          k =-0.0311 0.0311 0.6459 (  1260 PWs)   bands (ev):

   -44.3702 -43.9213   2.0966   6.9021   8.1910   8.4092  11.6934

          k = 0.0466 0.7996-0.1227 (  1270 PWs)   bands (ev):

   -44.1471 -44.1471   4.2144   4.2144   8.5086   8.5086  11.9559

          k = 0.0466-0.0466-0.9689 (  1264 PWs)   bands (ev):

   -44.1440 -44.1440   6.3035   6.3035   6.3035   6.3035  10.4199

          k = 0.0000 0.1692 0.1692 (  1274 PWs)   bands (ev):

   -44.6109 -43.6898  -0.5984   8.6083  12.5837  13.6341  13.8602

          k = 0.0000 0.3385 0.3385 (  1280 PWs)   bands (ev):

   -44.5919 -43.6949   0.3150   7.2509   8.3654  11.8817  13.3559

          k = 0.0000-0.5077-0.5077 (  1272 PWs)   bands (ev):

   -44.5821 -43.6976   1.0997   6.3525   6.7091  11.2521  13.3549

          k =-0.1382 0.1382-0.3074 (  1276 PWs)   bands (ev):

   -44.3975 -43.9172   0.2162   7.5880   8.9816  11.5985  15.6567

          k =-0.1692-0.3385-0.1692 (  1276 PWs)   bands (ev):

   -44.5969 -43.6932   0.0531   7.5475   9.2259  12.0978  13.5637

          k =-0.2158-0.6304 0.4612 (  1267 PWs)   bands (ev):

   -44.1669 -44.1456   1.7298   4.2221   8.5418  12.0342  14.8917

          k =-0.1537-0.5233-0.6615 (  1267 PWs)   bands (ev):

   -44.5271 -43.7605   1.2285   5.7109   7.0270  11.6757  13.8667

          k =-0.1692 0.5077 0.6770 (  1267 PWs)   bands (ev):

   -44.5823 -43.6973   1.2711   5.8850   6.6996  11.1808  13.8490

          k =-0.3385 0.3385 0.6770 (  1256 PWs)   bands (ev):

   -44.5773 -43.6991   3.1686   3.1686   6.4425  10.9222  15.6256

          k = 0.0155 0.4922 0.1848 (  1272 PWs)   bands (ev):

   -44.5327 -43.7557   0.7681   7.4640   8.1829  10.7332  11.9010

          k = 0.0155-0.3540-0.6615 (  1282 PWs)   bands (ev):

   -44.5241 -43.7580   1.6789   6.0834   6.8933  11.3608  11.8572

          k =-0.2158-0.7996 0.2919 (  1268 PWs)   bands (ev):

   -44.1571 -44.1461   2.5850   4.2362   7.8994  12.3471  13.1823

          k =-0.1848 0.3540 0.8307 (  1268 PWs)   bands (ev):

   -44.5224 -43.7566   2.2263   5.1151   8.0279  10.7124  11.0464

          k = 0.6304 0.3851 0.6304 (  1277 PWs)   bands (ev):

   -44.1742 -44.1416   1.3038   6.3013   6.3013  10.6595  18.2092

          k = 0.5233 0.4922-0.3230 (  1258 PWs)   bands (ev):

   -44.5214 -43.7660   2.3694   4.8001   4.9091  11.0441  16.8571

          k = 0.0311-0.2003-0.8152 (  1270 PWs)   bands (ev):

   -44.3640 -43.9214   3.4153   5.8823   6.9708  10.2873  10.3299

     the Fermi energy is     3.2342 ev

!    total energy              =     -29.95860547 Ry
     total all-electron energy =       -29.958628 Ry
     estimated scf accuracy    <          5.2E-10 Ry
     smearing contrib. (-TS)   =      -0.00029730 Ry
     internal energy E=F+TS    =     -29.95830817 Ry

     The total energy is F=E-TS. E is the sum of the following terms:
     one-electron contribution =     -19.08898113 Ry
     hartree contribution      =       7.61223199 Ry
     xc contribution           =      -7.36412755 Ry
     ewald contribution        =     -11.28347214 Ry
     one-center paw contrib.   =       0.16604066 Ry

     convergence has been achieved in   4 iterations

     Forces acting on atoms (cartesian axes, Ry/au):

     atom    1 type  1   force =    -0.00000000    0.00000000   -0.00000000
     atom    2 type  1   force =    -0.00000000    0.00000000    0.00000000

     Total force =     0.000000     Total SCF correction =     0.000000


     Computing stress (Cartesian axis) and pressure

          total   stress  (Ry/bohr**3)                   (kbar)     P=      145.99
   0.00099239  -0.00116519   0.00116519          145.99     -171.41      171.41
  -0.00116519   0.00099239  -0.00116519         -171.41      145.99     -171.41
   0.00116519  -0.00116519   0.00099239          171.41     -171.41      145.99

     Energy error            =      8.9E-02 Ry
     Gradient error          =      8.3E-32 Ry/Bohr
     Cell gradient error     =      1.7E+02 kbar

     number of scf cycles    =   2
     number of bfgs steps    =   1

     enthalpy           old  =     -29.8699327217 Ry
     enthalpy           new  =     -29.9586054700 Ry

     CASE: enthalpy          _new < enthalpy          _old

     new trust radius        =       0.2370853693 bohr
     new conv_thr            =            1.0E-10 Ry

     new unit-cell volume =    180.77806 a.u.^3 (    26.78854 Ang^3 )
     density =      0.86038 g/cm^3

CELL_PARAMETERS (alat=  6.60000000)
   0.545660297   0.427896873   0.545660297
  -0.545660297   0.545660297   0.427896873
  -0.427896873  -0.545660297   0.545660297

ATOMIC_POSITIONS (crystal)
Li              -0.0000000000        0.0000000000       -0.0000000000
Li               0.5000000000        0.5000000000        0.5000000000



     Writing config-only to output data dir ./tmp/Li_BCC.save/ :
     XML data file
     NEW-OLD atomic charge density approx. for the potential

     total cpu time spent up to now is        1.8 secs

     Self-consistent Calculation

     iteration #  1     ecut=    65.00 Ry     beta= 0.70
     Davidson diagonalization with overlap
     ethr =  1.00E-06,  avg # of iterations =  7.4

     total cpu time spent up to now is        2.1 secs

     total energy              =     -30.01533766 Ry
     estimated scf accuracy    <       0.00011899 Ry

     iteration #  2     ecut=    65.00 Ry     beta= 0.70
     Davidson diagonalization with overlap
     ethr =  1.98E-06,  avg # of iterations =  1.0

     total cpu time spent up to now is        2.2 secs

     total energy              =     -30.01527600 Ry
     estimated scf accuracy    <       0.00001449 Ry

     iteration #  3     ecut=    65.00 Ry     beta= 0.70
     Davidson diagonalization with overlap
     ethr =  2.41E-07,  avg # of iterations =  2.1

     total cpu time spent up to now is        2.3 secs

     total energy              =     -30.01527773 Ry
     estimated scf accuracy    <       0.00000019 Ry

     iteration #  4     ecut=    65.00 Ry     beta= 0.70
     Davidson diagonalization with overlap
     ethr =  3.25E-09,  avg # of iterations =  2.0

     total cpu time spent up to now is        2.4 secs

     total energy              =     -30.01527774 Ry
     estimated scf accuracy    <          7.6E-09 Ry

     iteration #  5     ecut=    65.00 Ry     beta= 0.70
     Davidson diagonalization with overlap
     ethr =  1.27E-10,  avg # of iterations =  1.2

     total cpu time spent up to now is        2.5 secs

     End of self-consistent calculation

          k = 0.0000 0.0000 0.0000 (  1253 PWs)   bands (ev):

   -44.3360 -43.9765  -1.4072   8.4231  11.7315  11.7315  16.2129

          k =-0.0304-0.1408 0.1408 (  1274 PWs)   bands (ev):

   -44.3141 -43.9946  -1.0995   7.2448   9.8361  11.2319  15.0668

          k =-0.0608-0.2816 0.2816 (  1280 PWs)   bands (ev):

   -44.2458 -44.0550  -0.1216   4.1156  10.7081  11.1235  13.4595

          k = 0.0912 0.4224-0.4224 (  1272 PWs)   bands (ev):

   -44.1501 -44.1501   1.5971   1.5971  11.8817  11.8817  12.3178

          k =-0.2016-0.1408 0.3120 (  1276 PWs)   bands (ev):

   -44.2976 -44.0008  -0.2806   4.9934  10.5887  10.7399  13.3037

          k =-0.0496 0.5632-0.3920 (  1267 PWs)   bands (ev):

   -44.2284 -44.0642   1.1741   2.5197   8.7815  12.2084  12.2840

          k =-0.2208 0.5632-0.2208 (  1256 PWs)   bands (ev):

   -44.2189 -44.0685   1.9923   2.4773   6.2236  11.6304  13.7345

          k =-0.0304 0.0304 0.3120 (  1269 PWs)   bands (ev):

   -44.3052 -43.9953  -0.6887   7.2752   7.8560  12.7188  12.7576

          k =-0.0608-0.1104 0.4528 (  1272 PWs)   bands (ev):

   -44.2388 -44.0556   0.3098   4.5237   8.2184  11.1211  13.9076

          k = 0.0912 0.5936-0.2512 (  1282 PWs)   bands (ev):

   -44.1470 -44.1470   2.0319   2.0319   9.4812   9.4812  14.7825

          k =-0.0496 0.7344-0.2208 (  1268 PWs)   bands (ev):

   -44.2230 -44.0612   1.8579   3.4827   7.0727   9.9446  12.6992

          k = 0.5328-0.5328 0.1904 (  1277 PWs)   bands (ev):

   -44.2832 -44.0133   0.9734   3.4287   7.3439  10.9509  13.6370

          k = 0.3920-0.3920 0.2208 (  1258 PWs)   bands (ev):

   -44.2172 -44.0717   1.5095   2.9338   6.0120  10.0780  15.9869

          k =-0.0608 0.0608 0.6240 (  1260 PWs)   bands (ev):

   -44.2246 -44.0555   1.6332   5.5635   6.8129   8.1173  10.8493

          k = 0.0912 0.7648-0.0800 (  1270 PWs)   bands (ev):

   -44.1415 -44.1415   3.4010   3.4010   7.6370   7.6370  10.9094

          k = 0.0912-0.0912-0.9360 (  1264 PWs)   bands (ev):

   -44.1379 -44.1379   5.6558   5.6558   5.6558   5.6558   8.7860

          k = 0.0000 0.1712 0.1712 (  1274 PWs)   bands (ev):

   -44.3277 -43.9798  -1.0114   7.0659  10.6820  11.6139  12.9684

          k = 0.0000 0.3424 0.3424 (  1280 PWs)   bands (ev):

   -44.3112 -43.9862   0.1459   5.3171   8.2491  10.1157  12.6059

          k =-0.0000-0.5136-0.5136 (  1272 PWs)   bands (ev):

   -44.3010 -43.9899   1.2104   4.6757   5.9038  10.0779  11.9475

          k =-0.1104 0.1104-0.2816 (  1276 PWs)   bands (ev):

   -44.2539 -44.0497  -0.5591   6.2640   7.6880  10.3199  15.9436

          k =-0.1712-0.3424-0.1712 (  1276 PWs)   bands (ev):

   -44.3167 -43.9816  -0.2058   5.6702   9.6147  10.4099  12.0466

          k =-0.2624-0.5936 0.4224 (  1267 PWs)   bands (ev):

   -44.1603 -44.1383   0.6384   3.4227   7.7427  11.1073  14.2984

          k =-0.1408-0.5440-0.6544 (  1267 PWs)   bands (ev):

   -44.2827 -44.0077   1.1429   3.8217   6.6703  11.3222  12.0759

          k =-0.1712 0.5136 0.6848 (  1267 PWs)   bands (ev):

   -44.3023 -43.9882   1.2927   4.6501   5.9594  10.6649  10.8375

          k =-0.3424 0.3424 0.6848 (  1256 PWs)   bands (ev):

   -44.2963 -43.9932   3.3395   3.3395   4.3409  10.0042  12.5403

          k = 0.0304 0.4832 0.2016 (  1272 PWs)   bands (ev):

   -44.2878 -44.0046   0.5238   5.5991   8.1909   8.5831  11.9158

          k = 0.0304-0.3728-0.6544 (  1282 PWs)   bands (ev):

   -44.2804 -44.0089   1.7052   4.9532   5.7556   9.4193  11.3368

          k =-0.2624-0.7648 0.2512 (  1268 PWs)   bands (ev):

   -44.1517 -44.1382   1.5752   3.5274   6.7441  11.9152  12.1763

          k =-0.2016 0.3728 0.8256 (  1268 PWs)   bands (ev):

   -44.2781 -44.0085   2.1996   5.2450   5.9869   8.5773  10.1712

          k = 0.5936 0.4336 0.5936 (  1277 PWs)   bands (ev):

   -44.1698 -44.1332   0.1683   5.6490   5.6490   9.3916  18.2158

          k = 0.5440 0.4832-0.3120 (  1258 PWs)   bands (ev):

   -44.2772 -44.0173   2.4150   2.9065   4.9127  10.2818  13.9567

          k = 0.0608-0.2320-0.7952 (  1270 PWs)   bands (ev):

   -44.2187 -44.0569   3.1886   5.5309   5.5831   8.4823   9.0949

     the Fermi energy is     2.4840 ev

!    total energy              =     -30.01527774 Ry
     total all-electron energy =       -30.015300 Ry
     estimated scf accuracy    <          8.3E-11 Ry
     smearing contrib. (-TS)   =      -0.00057218 Ry
     internal energy E=F+TS    =     -30.01470556 Ry

     The total energy is F=E-TS. E is the sum of the following terms:
     one-electron contribution =     -19.24347362 Ry
     hartree contribution      =       7.61855142 Ry
     xc contribution           =      -7.30638093 Ry
     ewald contribution        =     -11.24759701 Ry
     one-center paw contrib.   =       0.16419458 Ry

     convergence has been achieved in   5 iterations

     Forces acting on atoms (cartesian axes, Ry/au):

     atom    1 type  1   force =     0.00000000    0.00000000    0.00000000
     atom    2 type  1   force =     0.00000000    0.00000000    0.00000000

     Total force =     0.000000     Total SCF correction =     0.000000


     Computing stress (Cartesian axis) and pressure

          total   stress  (Ry/bohr**3)                   (kbar)     P=       63.48
   0.00043154  -0.00037655   0.00037655           63.48      -55.39       55.39
  -0.00037655   0.00043154  -0.00037655          -55.39       63.48      -55.39
   0.00037655  -0.00037655   0.00043154           55.39      -55.39       63.48

     Energy error            =      5.7E-02 Ry
     Gradient error          =      0.0E+00 Ry/Bohr
     Cell gradient error     =      6.3E+01 kbar

     number of scf cycles    =   3
     number of bfgs steps    =   2

     enthalpy           old  =     -29.9586054700 Ry
     enthalpy           new  =     -30.0152777380 Ry

     CASE: enthalpy          _new < enthalpy          _old

     new trust radius        =       0.1146466793 bohr
     new conv_thr            =            1.0E-10 Ry

     new unit-cell volume =    193.85499 a.u.^3 (    28.72635 Ang^3 )
     density =      0.80234 g/cm^3

CELL_PARAMETERS (alat=  6.60000000)
   0.561762030   0.411114415   0.561762030
  -0.561762030   0.561762030   0.411114415
  -0.411114415  -0.561762030   0.561762030

ATOMIC_POSITIONS (crystal)
Li              -0.0000000000        0.0000000000       -0.0000000000
Li               0.5000000000        0.5000000000        0.5000000000



     Writing config-only to output data dir ./tmp/Li_BCC.save/ :
     XML data file
     NEW-OLD atomic charge density approx. for the potential

     total cpu time spent up to now is        2.6 secs

     Self-consistent Calculation

     iteration #  1     ecut=    65.00 Ry     beta= 0.70
     Davidson diagonalization with overlap
     ethr =  1.00E-06,  avg # of iterations =  6.2

     total cpu time spent up to now is        2.8 secs

     total energy              =     -30.02573669 Ry
     estimated scf accuracy    <       0.00013980 Ry

     iteration #  2     ecut=    65.00 Ry     beta= 0.70
     Davidson diagonalization with overlap
     ethr =  2.33E-06,  avg # of iterations =  1.0

     total cpu time spent up to now is        2.9 secs

     total energy              =     -30.02572317 Ry
     estimated scf accuracy    <       0.00001325 Ry

     iteration #  3     ecut=    65.00 Ry     beta= 0.70
     Davidson diagonalization with overlap
     ethr =  2.21E-07,  avg # of iterations =  1.1

     total cpu time spent up to now is        3.0 secs

     total energy              =     -30.02572331 Ry
     estimated scf accuracy    <          4.1E-09 Ry

     iteration #  4     ecut=    65.00 Ry     beta= 0.70
     Davidson diagonalization with overlap
     ethr =  6.82E-11,  avg # of iterations =  2.7

     total cpu time spent up to now is        3.1 secs

     End of self-consistent calculation

          k = 0.0000 0.0000 0.0000 (  1253 PWs)   bands (ev):

   -44.4778 -44.2507  -1.6505   7.9329  10.4866  10.4867  12.4157

          k =-0.0362-0.1351 0.1351 (  1274 PWs)   bands (ev):

   -44.4666 -44.2550  -1.3586   6.5515   9.1156  10.3169  13.4925

          k =-0.0725-0.2702 0.2702 (  1280 PWs)   bands (ev):

   -44.4216 -44.2868  -0.4330   3.5498  10.0988  10.5597  13.3765

          k = 0.1087 0.4053-0.4053 (  1272 PWs)   bands (ev):

   -44.3547 -44.3547   1.1854   1.1854  11.5886  11.5886  11.8057

          k =-0.2075-0.1351 0.3064 (  1276 PWs)   bands (ev):

   -44.4510 -44.2607  -0.4812   4.2553   9.8505  10.4860  11.9624

          k =-0.0264 0.5403-0.3690 (  1267 PWs)   bands (ev):

   -44.4044 -44.2952   0.9354   1.9315   8.5591  11.6007  11.9277

          k =-0.1977 0.5403-0.1977 (  1256 PWs)   bands (ev):

   -44.3944 -44.2987   1.3949   2.3496   5.8815  11.3349  12.6716

          k =-0.0362 0.0362 0.3064 (  1269 PWs)   bands (ev):

   -44.4582 -44.2540  -0.9192   6.6091   7.0017  11.4162  12.7591

          k =-0.0725-0.0989 0.4415 (  1272 PWs)   bands (ev):

   -44.4145 -44.2877   0.0209   3.9567   7.6099  10.9004  13.8104

          k = 0.1087 0.5766-0.2339 (  1282 PWs)   bands (ev):

   -44.3516 -44.3516   1.6350   1.6350   9.0399   9.0399  14.4176

          k =-0.0264 0.7117-0.1977 (  1268 PWs)   bands (ev):

   -44.3987 -44.2935   1.6774   2.8879   6.7230   9.1660  12.5940

          k = 0.5041-0.5041 0.1615 (  1277 PWs)   bands (ev):

   -44.4376 -44.2771   0.8516   2.6819   7.3380  10.5620  12.7104

          k = 0.3690-0.3690 0.1977 (  1258 PWs)   bands (ev):

   -44.3929 -44.3005   0.9114   2.7731   5.8930   9.5368  15.0875

          k =-0.0725 0.0725 0.6128 (  1260 PWs)   bands (ev):

   -44.4000 -44.2873   1.4087   5.0223   6.0807   8.0101  10.3324

          k = 0.1087 0.7479-0.0626 (  1270 PWs)   bands (ev):

   -44.3469 -44.3469   3.0474   3.0474   7.1872   7.1872  10.3299

          k = 0.1087-0.1087-0.9192 (  1264 PWs)   bands (ev):

   -44.3430 -44.3430   5.3620   5.3620   5.3620   5.3620   7.9517

          k =-0.0000 0.1713 0.1713 (  1274 PWs)   bands (ev):

   -44.4711 -44.2538  -1.2234   6.3583   9.4336  10.5038  12.9558

          k =-0.0000 0.3426 0.3426 (  1280 PWs)   bands (ev):

   -44.4578 -44.2601   0.0290   4.4941   8.0863   8.8351  12.7409

          k =-0.0000-0.5139-0.5139 (  1272 PWs)   bands (ev):

   -44.4479 -44.2639   1.2206   3.8288   5.6055   8.7743  12.0786

          k =-0.0989 0.0989-0.2702 (  1276 PWs)   bands (ev):

   -44.4293 -44.2814  -0.8944   5.7210   7.1359   9.7151  15.8211

          k =-0.1713-0.3426-0.1713 (  1276 PWs)   bands (ev):

   -44.4633 -44.2527  -0.3588   4.8555   9.1822   9.6590  11.3491

          k =-0.2800-0.5766 0.4053 (  1267 PWs)   bands (ev):

   -44.3633 -44.3431   0.1947   3.0795   7.3543  10.6138  13.8666

          k =-0.1351-0.5502-0.6490 (  1267 PWs)   bands (ev):

   -44.4379 -44.2679   1.0668   3.0642   6.4188  10.0709  12.0690

          k =-0.1713 0.5139 0.6853 (  1267 PWs)   bands (ev):

   -44.4500 -44.2609   1.2546   3.7898   5.8883   9.4124  10.5291

          k =-0.3426 0.3426 0.6853 (  1256 PWs)   bands (ev):

   -44.4436 -44.2687   3.3557   3.3557   3.4620   9.4480  11.3227

          k = 0.0362 0.4777 0.2075 (  1272 PWs)   bands (ev):

   -44.4421 -44.2676   0.3794   4.8106   7.6592   8.0772  11.7564

          k = 0.0362-0.3789-0.6490 (  1282 PWs)   bands (ev):

   -44.4362 -44.2734   1.6816   4.1455   5.5053   8.3282  11.1669

          k =-0.2800-0.7479 0.2339 (  1268 PWs)   bands (ev):

   -44.3567 -44.3420   1.1560   3.2267   6.2100  11.5509  11.6488

          k =-0.2075 0.3789 0.8203 (  1268 PWs)   bands (ev):

   -44.4335 -44.2741   2.1416   5.0658   5.2325   7.7291   9.6367

          k = 0.5766 0.4513 0.5766 (  1277 PWs)   bands (ev):

   -44.3744 -44.3374  -0.2896   5.3513   5.3513   8.8042  17.8449

          k = 0.5502 0.4777-0.3064 (  1258 PWs)   bands (ev):

   -44.4329 -44.2813   2.1554   2.3930   4.8328   9.8153  12.4597

          k = 0.0725-0.2438-0.7841 (  1270 PWs)   bands (ev):

   -44.3948 -44.2896   3.0636   4.9157   5.3806   7.6073   8.5653

     the Fermi energy is     2.1486 ev

!    total energy              =     -30.02572331 Ry
     total all-electron energy =       -30.025746 Ry
     estimated scf accuracy    <          1.7E-11 Ry
     smearing contrib. (-TS)   =      -0.00036111 Ry
     internal energy E=F+TS    =     -30.02536220 Ry

     The total energy is F=E-TS. E is the sum of the following terms:
     one-electron contribution =     -19.46216898 Ry
     hartree contribution      =       7.65740535 Ry
     xc contribution           =      -7.26935511 Ry
     ewald contribution        =     -11.11352463 Ry
     one-center paw contrib.   =       0.16228117 Ry

     convergence has been achieved in   4 iterations

     Forces acting on atoms (cartesian axes, Ry/au):

     atom    1 type  1   force =     0.00000000   -0.00000000   -0.00000000
     atom    2 type  1   force =    -0.00000000   -0.00000000   -0.00000000

     Total force =     0.000000     Total SCF correction =     0.000000


     Computing stress (Cartesian axis) and pressure

          total   stress  (Ry/bohr**3)                   (kbar)     P=       20.35
   0.00013836  -0.00011182   0.00011182           20.35      -16.45       16.45
  -0.00011182   0.00013836  -0.00011182          -16.45       20.35      -16.45
   0.00011182  -0.00011182   0.00013836           16.45      -16.45       20.35

     Energy error            =      1.0E-02 Ry
     Gradient error          =      4.4E-31 Ry/Bohr
     Cell gradient error     =      2.0E+01 kbar

     number of scf cycles    =   4
     number of bfgs steps    =   3

     enthalpy           old  =     -30.0152777380 Ry
     enthalpy           new  =     -30.0257233132 Ry

     CASE: enthalpy          _new < enthalpy          _old

     new trust radius        =       0.0484535088 bohr
     new conv_thr            =            1.0E-10 Ry

     new unit-cell volume =    199.79693 a.u.^3 (    29.60685 Ang^3 )
     density =      0.77848 g/cm^3

CELL_PARAMETERS (alat=  6.60000000)
   0.568999561   0.404120207   0.568999561
  -0.568999561   0.568999561   0.404120207
  -0.404120207  -0.568999561   0.568999561

ATOMIC_POSITIONS (crystal)
Li              -0.0000000000        0.0000000000       -0.0000000000
Li               0.5000000000        0.5000000000        0.5000000000



     Writing config-only to output data dir ./tmp/Li_BCC.save/ :
     XML data file
     NEW-OLD atomic charge density approx. for the potential

     total cpu time spent up to now is        3.2 secs

     Self-consistent Calculation

     iteration #  1     ecut=    65.00 Ry     beta= 0.70
     Davidson diagonalization with overlap
     ethr =  1.00E-06,  avg # of iterations =  4.9

     total cpu time spent up to now is        3.4 secs

     total energy              =     -30.02674063 Ry
     estimated scf accuracy    <       0.00003325 Ry

     iteration #  2     ecut=    65.00 Ry     beta= 0.70
     Davidson diagonalization with overlap
     ethr =  5.54E-07,  avg # of iterations =  1.0

     total cpu time spent up to now is        3.5 secs

     total energy              =     -30.02673854 Ry
     estimated scf accuracy    <       0.00000258 Ry

     iteration #  3     ecut=    65.00 Ry     beta= 0.70
     Davidson diagonalization with overlap
     ethr =  4.31E-08,  avg # of iterations =  1.0

     total cpu time spent up to now is        3.6 secs

     total energy              =     -30.02673859 Ry
     estimated scf accuracy    <          2.7E-09 Ry

     iteration #  4     ecut=    65.00 Ry     beta= 0.70
     Davidson diagonalization with overlap
     ethr =  4.44E-11,  avg # of iterations =  2.9

     total cpu time spent up to now is        3.7 secs

     total energy              =     -30.02673860 Ry
     estimated scf accuracy    <          8.0E-10 Ry

     iteration #  5     ecut=    65.00 Ry     beta= 0.70
     Davidson diagonalization with overlap
     ethr =  1.34E-11,  avg # of iterations =  2.0

     total cpu time spent up to now is        3.9 secs

     total energy              =     -30.02673860 Ry
     estimated scf accuracy    <          1.3E-10 Ry

     iteration #  6     ecut=    65.00 Ry     beta= 0.70
     Davidson diagonalization with overlap
     ethr =  2.12E-12,  avg # of iterations =  1.0

     total cpu time spent up to now is        4.0 secs

     End of self-consistent calculation

          k = 0.0000 0.0000 0.0000 (  1253 PWs)   bands (ev):

   -44.5823 -44.3941  -1.7489   7.7266  10.0093  10.0093  11.9675

          k =-0.0385-0.1328 0.1328 (  1274 PWs)   bands (ev):

   -44.5746 -44.3930  -1.4626   6.2750   8.8292   9.9515  12.9076

          k =-0.0770-0.2656 0.2656 (  1280 PWs)   bands (ev):

   -44.5361 -44.4150  -0.5559   3.3313   9.8424  10.3268  13.3196

          k = 0.1154 0.3984-0.3984 (  1272 PWs)   bands (ev):

   -44.4765 -44.4765   1.0253   1.0253  11.4563  11.4563  11.5788

          k =-0.2097-0.1328 0.3041 (  1276 PWs)   bands (ev):

   -44.5594 -44.3983  -0.5639   3.9681   9.4736  10.4265  11.4410

          k =-0.0174 0.5312-0.3599 (  1267 PWs)   bands (ev):

   -44.5192 -44.4229   0.8389   1.7054   8.4576  11.2936  11.7895

          k =-0.1886 0.5312-0.1886 (  1256 PWs)   bands (ev):

   -44.5089 -44.4260   1.1655   2.2968   5.7358  11.1905  12.1685

          k =-0.0385 0.0385 0.3041 (  1269 PWs)   bands (ev):

   -44.5665 -44.3911  -1.0128   6.3351   6.6750  10.8893  12.7538

          k =-0.0770-0.0943 0.4369 (  1272 PWs)   bands (ev):

   -44.5291 -44.4161  -0.0941   3.7371   7.3611  10.7941  13.7452

          k = 0.1154 0.5696-0.2271 (  1282 PWs)   bands (ev):

   -44.4735 -44.4735   1.4798   1.4798   8.8526   8.8526  14.0930

          k =-0.0174 0.7024-0.1886 (  1268 PWs)   bands (ev):

   -44.5132 -44.4219   1.6029   2.6574   6.5741   8.8239  12.5271

          k = 0.4927-0.4927 0.1501 (  1277 PWs)   bands (ev):

   -44.5465 -44.4169   0.7983   2.3933   7.3238  10.3875  12.3203

          k = 0.3599-0.3599 0.1886 (  1258 PWs)   bands (ev):

   -44.5074 -44.4270   0.6821   2.7057   5.8388   9.3091  14.6831

          k =-0.0770 0.0770 0.6081 (  1260 PWs)   bands (ev):

   -44.5143 -44.4154   1.3167   4.8139   5.7774   7.9582  10.1003

          k = 0.1154 0.7409-0.0558 (  1270 PWs)   bands (ev):

   -44.4691 -44.4691   2.9069   2.9069   6.9935   6.9935  10.0725

          k = 0.1154-0.1154-0.9122 (  1264 PWs)   bands (ev):

   -44.4652 -44.4652   5.2445   5.2445   5.2445   5.2445   7.5930

          k = 0.0000 0.1713 0.1713 (  1274 PWs)   bands (ev):

   -44.5763 -44.3971  -1.3103   6.0684   8.9565  10.0809  12.9260

          k = 0.0000 0.3425 0.3425 (  1280 PWs)   bands (ev):

   -44.5646 -44.4031  -0.0227   4.1689   8.0076   8.3439  12.7681

          k =-0.0000-0.5138-0.5138 (  1272 PWs)   bands (ev):

   -44.5549 -44.4070   1.2200   3.4969   5.4742   8.2728  12.1056

          k =-0.0943 0.0943-0.2656 (  1276 PWs)   bands (ev):

   -44.5436 -44.4096  -1.0260   5.5106   6.9157   9.4614  15.7276

          k =-0.1713-0.3425-0.1713 (  1276 PWs)   bands (ev):

   -44.5701 -44.3943  -0.4239   4.5308   8.7154   9.6603  10.9178

          k =-0.2867-0.5696 0.3984 (  1267 PWs)   bands (ev):

   -44.4843 -44.4651   0.0232   2.9442   7.1941  10.3987  13.6561

          k =-0.1328-0.5523-0.6466 (  1267 PWs)   bands (ev):

   -44.5472 -44.4057   1.0316   2.7710   6.3071   9.5595  12.0375

          k =-0.1713 0.5138 0.6851 (  1267 PWs)   bands (ev):

   -44.5574 -44.4032   1.2332   3.4513   5.8458   8.9335  10.3874

          k =-0.3425 0.3425 0.6851 (  1256 PWs)   bands (ev):

   -44.5509 -44.4126   3.1164   3.3548   3.3548   9.2081  10.8575

          k = 0.0385 0.4753 0.2097 (  1272 PWs)   bands (ev):

   -44.5509 -44.4070   0.3175   4.4984   7.2908   8.0161  11.6704

          k = 0.0385-0.3810-0.6466 (  1282 PWs)   bands (ev):

   -44.5459 -44.4135   1.6680   3.8275   5.3913   7.8919  11.0775

          k =-0.2867-0.7409 0.2271 (  1268 PWs)   bands (ev):

   -44.4787 -44.4635   0.9924   3.1090   5.9913  11.2542  11.5334

          k =-0.2097 0.3810 0.8179 (  1268 PWs)   bands (ev):

   -44.5429 -44.4147   2.1126   4.6923   5.2189   7.4042   9.4036

          k = 0.5696 0.4580 0.5696 (  1277 PWs)   bands (ev):

   -44.4962 -44.4592  -0.4661   5.2317   5.2317   8.5630  17.5821

          k = 0.5523 0.4753-0.3041 (  1258 PWs)   bands (ev):

   -44.5426 -44.4211   1.8655   2.3791   4.7898   9.6144  11.8662

          k = 0.0770-0.2482-0.7794 (  1270 PWs)   bands (ev):

   -44.5095 -44.4182   3.0110   4.6684   5.2888   7.2440   8.3571

     the Fermi energy is     1.9898 ev

!    total energy              =     -30.02673860 Ry
     total all-electron energy =       -30.026761 Ry
     estimated scf accuracy    <          9.4E-14 Ry
     smearing contrib. (-TS)   =      -0.00014313 Ry
     internal energy E=F+TS    =     -30.02659547 Ry

     The total energy is F=E-TS. E is the sum of the following terms:
     one-electron contribution =     -19.56682724 Ry
     hartree contribution      =       7.67369672 Ry
     xc contribution           =      -7.25163474 Ry
     ewald contribution        =     -11.04300157 Ry
     one-center paw contrib.   =       0.16117136 Ry

     convergence has been achieved in   6 iterations

     Forces acting on atoms (cartesian axes, Ry/au):

     atom    1 type  1   force =     0.00000000    0.00000000   -0.00000000
     atom    2 type  1   force =    -0.00000000   -0.00000000    0.00000000

     Total force =     0.000000     Total SCF correction =     0.000000


     Computing stress (Cartesian axis) and pressure

          total   stress  (Ry/bohr**3)                   (kbar)     P=        0.12
   0.00000080   0.00001080  -0.00001080            0.12        1.59       -1.59
   0.00001080   0.00000080   0.00001080            1.59        0.12        1.59
  -0.00001080   0.00001080   0.00000080           -1.59        1.59        0.12

     Energy error            =      1.0E-03 Ry
     Gradient error          =      6.8E-31 Ry/Bohr
     Cell gradient error     =      1.6E+00 kbar

     number of scf cycles    =   5
     number of bfgs steps    =   4

     enthalpy           old  =     -30.0257233132 Ry
     enthalpy           new  =     -30.0267386001 Ry

     CASE: enthalpy          _new < enthalpy          _old

     new trust radius        =       0.0028122363 bohr
     new conv_thr            =            1.0E-10 Ry

     new unit-cell volume =    199.65123 a.u.^3 (    29.58526 Ang^3 )
     density =      0.77905 g/cm^3

CELL_PARAMETERS (alat=  6.60000000)
   0.568749003   0.404798439   0.568749003
  -0.568749003   0.568749003   0.404798439
  -0.404798439  -0.568749003   0.568749003

ATOMIC_POSITIONS (crystal)
Li              -0.0000000000        0.0000000000       -0.0000000000
Li               0.5000000000        0.5000000000        0.5000000000



     Writing config-only to output data dir ./tmp/Li_BCC.save/ :
     XML data file
     NEW-OLD atomic charge density approx. for the potential

     total cpu time spent up to now is        4.0 secs

     Self-consistent Calculation

     iteration #  1     ecut=    65.00 Ry     beta= 0.70
     Davidson diagonalization with overlap
     ethr =  1.00E-06,  avg # of iterations =  2.0

     Threshold (ethr) on eigenvalues was too large:
     Diagonalizing with lowered threshold

     Davidson diagonalization with overlap
     ethr =  1.25E-09,  avg # of iterations =  1.6

     total cpu time spent up to now is        4.2 secs

     total energy              =     -30.02674356 Ry
     estimated scf accuracy    <       0.00000008 Ry

     iteration #  2     ecut=    65.00 Ry     beta= 0.70
     Davidson diagonalization with overlap
     ethr =  1.28E-09,  avg # of iterations =  1.0

     total cpu time spent up to now is        4.3 secs

     total energy              =     -30.02674356 Ry
     estimated scf accuracy    <          5.3E-09 Ry

     iteration #  3     ecut=    65.00 Ry     beta= 0.70
     Davidson diagonalization with overlap
     ethr =  8.79E-11,  avg # of iterations =  1.2

     total cpu time spent up to now is        4.4 secs

     End of self-consistent calculation

          k = 0.0000 0.0000 0.0000 (  1253 PWs)   bands (ev):

   -44.5819 -44.3919  -1.7465   7.7287  10.0291  10.0291  11.9842

          k =-0.0383-0.1329 0.1329 (  1274 PWs)   bands (ev):

   -44.5740 -44.3911  -1.4598   6.2841   8.8365   9.9642  12.9323

          k =-0.0766-0.2658 0.2658 (  1280 PWs)   bands (ev):

   -44.5353 -44.4137  -0.5523   3.3390   9.8464  10.3302  13.3081

          k = 0.1149 0.3987-0.3987 (  1272 PWs)   bands (ev):

   -44.4754 -44.4754   1.0306   1.0306  11.4518  11.4518  11.5791

          k =-0.2095-0.1329 0.3041 (  1276 PWs)   bands (ev):

   -44.5588 -44.3964  -0.5627   3.9799   9.4872  10.4168  11.4619

          k =-0.0180 0.5316-0.3604 (  1267 PWs)   bands (ev):

   -44.5184 -44.4215   0.8404   1.7147   8.4526  11.3008  11.7837

          k =-0.1892 0.5316-0.1892 (  1256 PWs)   bands (ev):

   -44.5081 -44.4246   1.1753   2.2953   5.7351  11.1857  12.1889

          k =-0.0383 0.0383 0.3041 (  1269 PWs)   bands (ev):

   -44.5659 -44.3892  -1.0108   6.3436   6.6880  10.9111  12.7392

          k =-0.0766-0.0946 0.4370 (  1272 PWs)   bands (ev):

   -44.5282 -44.4147  -0.0911   3.7448   7.3671  10.7874  13.7332

          k = 0.1149 0.5699-0.2275 (  1282 PWs)   bands (ev):

   -44.4724 -44.4724   1.4847   1.4847   8.8529   8.8529  14.1039

          k =-0.0180 0.7027-0.1892 (  1268 PWs)   bands (ev):

   -44.5124 -44.4205   1.6029   2.6665   6.5731   8.8360  12.5163

          k = 0.4932-0.4932 0.1509 (  1277 PWs)   bands (ev):

   -44.5460 -44.4148   0.7972   2.4063   7.3150  10.3832  12.3310

          k = 0.3604-0.3604 0.1892 (  1258 PWs)   bands (ev):

   -44.5066 -44.4257   0.6921   2.7044   5.8342   9.3090  14.6931

          k =-0.0766 0.0766 0.6082 (  1260 PWs)   bands (ev):

   -44.5136 -44.4140   1.3177   4.8206   5.7885   7.9514  10.1013

          k = 0.1149 0.7411-0.0563 (  1270 PWs)   bands (ev):

   -44.4680 -44.4680   2.9101   2.9101   6.9964   6.9964  10.0774

          k = 0.1149-0.1149-0.9123 (  1264 PWs)   bands (ev):

   -44.4640 -44.4640   5.2446   5.2446   5.2446   5.2446   7.6055

          k = 0.0000 0.1712 0.1712 (  1274 PWs)   bands (ev):

   -44.5759 -44.3949  -1.3087   6.0786   8.9771  10.0967  12.9121

          k = 0.0000 0.3424 0.3424 (  1280 PWs)   bands (ev):

   -44.5642 -44.4009  -0.0235   4.1834   8.0008   8.3654  12.7509

          k =-0.0000-0.5136-0.5136 (  1272 PWs)   bands (ev):

   -44.5545 -44.4048   1.2160   3.5125   5.4722   8.2947  12.0891

          k =-0.0946 0.0946-0.2658 (  1276 PWs)   bands (ev):

   -44.5427 -44.4083  -1.0216   5.5167   6.9196   9.4662  15.7156

          k =-0.1712-0.3424-0.1712 (  1276 PWs)   bands (ev):

   -44.5697 -44.3921  -0.4239   4.5448   8.7359   9.6483  10.9323

          k =-0.2861-0.5699 0.3987 (  1267 PWs)   bands (ev):

   -44.4832 -44.4640   0.0297   2.9471   7.1941  10.3995  13.6543

          k =-0.1329-0.5519-0.6465 (  1267 PWs)   bands (ev):

   -44.5467 -44.4037   1.0295   2.7842   6.3037   9.5817  12.0247

          k =-0.1712 0.5136 0.6848 (  1267 PWs)   bands (ev):

   -44.5570 -44.4010   1.2301   3.4672   5.8395   8.9542  10.3811

          k =-0.3424 0.3424 0.6848 (  1256 PWs)   bands (ev):

   -44.5505 -44.4103   3.1330   3.3488   3.3488   9.2077  10.8759

          k = 0.0383 0.4753 0.2095 (  1272 PWs)   bands (ev):

   -44.5504 -44.4050   0.3171   4.5117   7.3059   8.0089  11.6605

          k = 0.0383-0.3807-0.6465 (  1282 PWs)   bands (ev):

   -44.5453 -44.4114   1.6644   3.8418   5.3889   7.9106  11.0685

          k =-0.2861-0.7411 0.2275 (  1268 PWs)   bands (ev):

   -44.4775 -44.4624   0.9980   3.1112   5.9953  11.2606  11.5275

          k =-0.2095 0.3807 0.8177 (  1268 PWs)   bands (ev):

   -44.5424 -44.4126   2.1093   4.7097   5.2120   7.4164   9.4035

          k = 0.5699 0.4573 0.5699 (  1277 PWs)   bands (ev):

   -44.4950 -44.4581  -0.4591   5.2320   5.2320   8.5649  17.5821

          k = 0.5519 0.4753-0.3041 (  1258 PWs)   bands (ev):

   -44.5420 -44.4190   1.8790   2.3749   4.7846   9.6119  11.8919

          k = 0.0766-0.2478-0.7794 (  1270 PWs)   bands (ev):

   -44.5087 -44.4168   3.0088   4.6774   5.2864   7.2586   8.3605

     the Fermi energy is     1.9949 ev

!    total energy              =     -30.02674356 Ry
     total all-electron energy =       -30.026766 Ry
     estimated scf accuracy    <          2.6E-11 Ry
     smearing contrib. (-TS)   =      -0.00015945 Ry
     internal energy E=F+TS    =     -30.02658412 Ry

     The total energy is F=E-TS. E is the sum of the following terms:
     one-electron contribution =     -19.56696645 Ry
     hartree contribution      =       7.67446409 Ry
     xc contribution           =      -7.25228449 Ry
     ewald contribution        =     -11.04302576 Ry
     one-center paw contrib.   =       0.16122849 Ry

     convergence has been achieved in   3 iterations

     Forces acting on atoms (cartesian axes, Ry/au):

     atom    1 type  1   force =     0.00000000    0.00000000   -0.00000000
     atom    2 type  1   force =     0.00000000    0.00000000   -0.00000000

     Total force =     0.000000     Total SCF correction =     0.000000


     Computing stress (Cartesian axis) and pressure

          total   stress  (Ry/bohr**3)                   (kbar)     P=        0.93
   0.00000632   0.00000263  -0.00000263            0.93        0.39       -0.39
   0.00000263   0.00000632   0.00000263            0.39        0.93        0.39
  -0.00000263   0.00000263   0.00000632           -0.39        0.39        0.93

     Energy error            =      5.0E-06 Ry
     Gradient error          =      1.2E-30 Ry/Bohr
     Cell gradient error     =      9.3E-01 kbar

     number of scf cycles    =   6
     number of bfgs steps    =   5

     enthalpy           old  =     -30.0267386001 Ry
     enthalpy           new  =     -30.0267435628 Ry

     CASE: enthalpy          _new < enthalpy          _old

     new trust radius        =       0.0010743300 bohr
     new conv_thr            =            1.0E-10 Ry

     new unit-cell volume =    199.79598 a.u.^3 (    29.60671 Ang^3 )
     density =      0.77848 g/cm^3

CELL_PARAMETERS (alat=  6.60000000)
   0.568852421   0.405132313   0.568852421
  -0.568852421   0.568852421   0.405132313
  -0.405132313  -0.568852421   0.568852421

ATOMIC_POSITIONS (crystal)
Li              -0.0000000000        0.0000000000       -0.0000000000
Li               0.5000000000        0.5000000000        0.5000000000



     Writing config-only to output data dir ./tmp/Li_BCC.save/ :
     XML data file
     NEW-OLD atomic charge density approx. for the potential

     total cpu time spent up to now is        4.5 secs

     Self-consistent Calculation

     iteration #  1     ecut=    65.00 Ry     beta= 0.70
     Davidson diagonalization with overlap
     ethr =  1.00E-06,  avg # of iterations =  2.0

     Threshold (ethr) on eigenvalues was too large:
     Diagonalizing with lowered threshold

     Davidson diagonalization with overlap
     ethr =  6.17E-11,  avg # of iterations =  3.9

     total cpu time spent up to now is        4.7 secs

     total energy              =     -30.02674485 Ry
     estimated scf accuracy    <          5.9E-10 Ry

     iteration #  2     ecut=    65.00 Ry     beta= 0.70
     Davidson diagonalization with overlap
     ethr =  9.85E-12,  avg # of iterations =  2.9

     total cpu time spent up to now is        4.9 secs

     End of self-consistent calculation

          k = 0.0000 0.0000 0.0000 (  1253 PWs)   bands (ev):

   -44.5872 -44.3972  -1.7486   7.7213  10.0265  10.0265  11.9798

          k =-0.0382-0.1329 0.1329 (  1274 PWs)   bands (ev):

   -44.5793 -44.3965  -1.4620   6.2801   8.8303   9.9595  12.9297

          k =-0.0765-0.2658 0.2658 (  1280 PWs)   bands (ev):

   -44.5406 -44.4190  -0.5544   3.3364   9.8383  10.3224  13.2939

          k = 0.1147 0.3986-0.3986 (  1272 PWs)   bands (ev):

   -44.4808 -44.4808   1.0284   1.0284  11.4409  11.4409  11.5685

          k =-0.2094-0.1329 0.3040 (  1276 PWs)   bands (ev):

   -44.5642 -44.4017  -0.5654   3.9782   9.4826  10.4044  11.4585

          k =-0.0181 0.5315-0.3604 (  1267 PWs)   bands (ev):

   -44.5238 -44.4268   0.8374   1.7133   8.4429  11.2930  11.7712

          k =-0.1893 0.5315-0.1893 (  1256 PWs)   bands (ev):

   -44.5136 -44.4299   1.1743   2.2913   5.7276  11.1739  12.1846

          k =-0.0382 0.0382 0.3040 (  1269 PWs)   bands (ev):

   -44.5713 -44.3945  -1.0132   6.3392   6.6856  10.9080  12.7244

          k =-0.0765-0.0946 0.4369 (  1272 PWs)   bands (ev):

   -44.5336 -44.4201  -0.0935   3.7422   7.3614  10.7756  13.7180

          k = 0.1147 0.5697-0.2275 (  1282 PWs)   bands (ev):

   -44.4777 -44.4777   1.4823   1.4823   8.8445   8.8445  14.0954

          k =-0.0181 0.7026-0.1893 (  1268 PWs)   bands (ev):

   -44.5178 -44.4258   1.5995   2.6647   6.5651   8.8315  12.5023

          k = 0.4933-0.4933 0.1510 (  1277 PWs)   bands (ev):

   -44.5515 -44.4200   0.7935   2.4057   7.3056  10.3706  12.3232

          k = 0.3604-0.3604 0.1893 (  1258 PWs)   bands (ev):

   -44.5121 -44.4309   0.6913   2.7000   5.8269   9.2983  14.6834

          k =-0.0765 0.0765 0.6080 (  1260 PWs)   bands (ev):

   -44.5190 -44.4194   1.3144   4.8175   5.7851   7.9421  10.0912

          k = 0.1147 0.7409-0.0564 (  1270 PWs)   bands (ev):

   -44.4734 -44.4734   2.9068   2.9068   6.9899   6.9899  10.0698

          k = 0.1147-0.1147-0.9120 (  1264 PWs)   bands (ev):

   -44.4695 -44.4695   5.2393   5.2393   5.2393   5.2393   7.6008

          k = 0.0000 0.1711 0.1711 (  1274 PWs)   bands (ev):

   -44.5812 -44.4002  -1.3111   6.0751   8.9754  10.0926  12.8968

          k = 0.0000 0.3422 0.3422 (  1280 PWs)   bands (ev):

   -44.5696 -44.4061  -0.0268   4.1826   7.9903   8.3639  12.7350

          k =-0.0000-0.5134-0.5134 (  1272 PWs)   bands (ev):

   -44.5600 -44.4100   1.2119   3.5125   5.4639   8.2929  12.0738

          k =-0.0946 0.0946-0.2658 (  1276 PWs)   bands (ev):

   -44.5480 -44.4137  -1.0235   5.5131   6.9133   9.4589  15.6988

          k =-0.1711-0.3422-0.1711 (  1276 PWs)   bands (ev):

   -44.5751 -44.3974  -0.4269   4.5434   8.7345   9.6363  10.9265

          k =-0.2858-0.5697 0.3986 (  1267 PWs)   bands (ev):

   -44.4885 -44.4694   0.0281   2.9436   7.1866  10.3900  13.6422

          k =-0.1329-0.5516-0.6462 (  1267 PWs)   bands (ev):

   -44.5521 -44.4090   1.0258   2.7836   6.2950   9.5795  12.0103

          k =-0.1711 0.5134 0.6845 (  1267 PWs)   bands (ev):

   -44.5625 -44.4062   1.2259   3.4671   5.8310   8.9523  10.3682

          k =-0.3422 0.3422 0.6845 (  1256 PWs)   bands (ev):

   -44.5560 -44.4155   3.1332   3.3428   3.3428   9.1960  10.8725

          k = 0.0382 0.4751 0.2094 (  1272 PWs)   bands (ev):

   -44.5558 -44.4102   0.3138   4.5103   7.3035   7.9988  11.6466

          k = 0.0382-0.3805-0.6462 (  1282 PWs)   bands (ev):

   -44.5508 -44.4167   1.6602   3.8411   5.3811   7.9086  11.0551

          k =-0.2858-0.7409 0.2275 (  1268 PWs)   bands (ev):

   -44.4829 -44.4679   0.9959   3.1078   5.9889  11.2523  11.5162

          k =-0.2094 0.3805 0.8173 (  1268 PWs)   bands (ev):

   -44.5479 -44.4179   2.1046   4.7093   5.2045   7.4133   9.3923

          k = 0.5697 0.4570 0.5697 (  1277 PWs)   bands (ev):

   -44.5003 -44.4636  -0.4603   5.2267   5.2267   8.5556  17.5679

          k = 0.5516 0.4751-0.3040 (  1258 PWs)   bands (ev):

   -44.5475 -44.4242   1.8788   2.3700   4.7774   9.6000  11.8896

          k = 0.0765-0.2476-0.7791 (  1270 PWs)   bands (ev):

   -44.5142 -44.4222   3.0042   4.6747   5.2797   7.2559   8.3541

     the Fermi energy is     1.9924 ev

!    total energy              =     -30.02674485 Ry
     total all-electron energy =       -30.026768 Ry
     estimated scf accuracy    <          8.7E-11 Ry
     smearing contrib. (-TS)   =      -0.00016396 Ry
     internal energy E=F+TS    =     -30.02658089 Ry

     The total energy is F=E-TS. E is the sum of the following terms:
     one-electron contribution =     -19.57216618 Ry
     hartree contribution      =       7.67596836 Ry
     xc contribution           =      -7.25206782 Ry
     ewald contribution        =     -11.03954435 Ry
     one-center paw contrib.   =       0.16122910 Ry

     convergence has been achieved in   2 iterations

     Forces acting on atoms (cartesian axes, Ry/au):

     atom    1 type  1   force =    -0.00000000   -0.00000000    0.00000000
     atom    2 type  1   force =     0.00000000    0.00000000   -0.00000000

     Total force =     0.000000     Total SCF correction =     0.000000


     Computing stress (Cartesian axis) and pressure

          total   stress  (Ry/bohr**3)                   (kbar)     P=        0.78
   0.00000533   0.00000095  -0.00000095            0.78        0.14       -0.14
   0.00000095   0.00000533   0.00000095            0.14        0.78        0.14
  -0.00000095   0.00000095   0.00000533           -0.14        0.14        0.78

     Energy error            =      1.3E-06 Ry
     Gradient error          =      9.6E-31 Ry/Bohr
     Cell gradient error     =      7.8E-01 kbar

     number of scf cycles    =   7
     number of bfgs steps    =   6

     enthalpy           old  =     -30.0267435628 Ry
     enthalpy           new  =     -30.0267448457 Ry

     CASE: enthalpy          _new < enthalpy          _old

     new trust radius        =       0.0016114248 bohr
     new conv_thr            =            1.0E-10 Ry

     new unit-cell volume =    200.08925 a.u.^3 (    29.65017 Ang^3 )
     density =      0.77734 g/cm^3

CELL_PARAMETERS (alat=  6.60000000)
   0.569096747   0.405565981   0.569096747
  -0.569096747   0.569096747   0.405565981
  -0.405565981  -0.569096747   0.569096747

ATOMIC_POSITIONS (crystal)
Li              -0.0000000000        0.0000000000       -0.0000000000
Li               0.5000000000        0.5000000000        0.5000000000



     Writing config-only to output data dir ./tmp/Li_BCC.save/ :
     XML data file
     NEW-OLD atomic charge density approx. for the potential

     total cpu time spent up to now is        4.9 secs

     Self-consistent Calculation

     iteration #  1     ecut=    65.00 Ry     beta= 0.70
     Davidson diagonalization with overlap
     ethr =  1.00E-06,  avg # of iterations =  2.0

     Threshold (ethr) on eigenvalues was too large:
     Diagonalizing with lowered threshold

     Davidson diagonalization with overlap
     ethr =  4.33E-10,  avg # of iterations =  3.0

     total cpu time spent up to now is        5.2 secs

     total energy              =     -30.02674603 Ry
     estimated scf accuracy    <          3.9E-09 Ry

     iteration #  2     ecut=    65.00 Ry     beta= 0.70
     Davidson diagonalization with overlap
     ethr =  6.48E-11,  avg # of iterations =  2.0

     total cpu time spent up to now is        5.3 secs

     total energy              =     -30.02674603 Ry
     estimated scf accuracy    <          7.2E-10 Ry

     iteration #  3     ecut=    65.00 Ry     beta= 0.70
     Davidson diagonalization with overlap
     ethr =  1.20E-11,  avg # of iterations =  2.0

     total cpu time spent up to now is        5.4 secs

     End of self-consistent calculation

          k = 0.0000 0.0000 0.0000 (  1253 PWs)   bands (ev):

   -44.5964 -44.4067  -1.7531   7.7075  10.0171  10.0171  11.9682

          k =-0.0382-0.1328 0.1328 (  1274 PWs)   bands (ev):

   -44.5886 -44.4060  -1.4665   6.2710   8.8176   9.9481  12.9193

          k =-0.0763-0.2657 0.2657 (  1280 PWs)   bands (ev):

   -44.5500 -44.4285  -0.5590   3.3300   9.8229  10.3079  13.2712

          k = 0.1145 0.3985-0.3985 (  1272 PWs)   bands (ev):

   -44.4902 -44.4902   1.0232   1.0232  11.4227  11.4227  11.5497

          k =-0.2092-0.1328 0.3038 (  1276 PWs)   bands (ev):

   -44.5736 -44.4112  -0.5705   3.9724   9.4714  10.3846  11.4474

          k =-0.0183 0.5313-0.3603 (  1267 PWs)   bands (ev):

   -44.5332 -44.4363   0.8316   1.7087   8.4267  11.2775  11.7505

          k =-0.1893 0.5313-0.1893 (  1256 PWs)   bands (ev):

   -44.5231 -44.4393   1.1703   2.2846   5.7143  11.1540  12.1720

          k =-0.0382 0.0382 0.3038 (  1269 PWs)   bands (ev):

   -44.5806 -44.4040  -1.0180   6.3294   6.6783  10.8973  12.7015

          k =-0.0763-0.0947 0.4367 (  1272 PWs)   bands (ev):

   -44.5430 -44.4296  -0.0985   3.7358   7.3498  10.7563  13.6937

          k = 0.1145 0.5695-0.2275 (  1282 PWs)   bands (ev):

   -44.4872 -44.4872   1.4768   1.4768   8.8293   8.8293  14.0776

          k =-0.0183 0.7023-0.1893 (  1268 PWs)   bands (ev):

   -44.5273 -44.4353   1.5932   2.6595   6.5511   8.8206  12.4799

          k = 0.4932-0.4932 0.1512 (  1277 PWs)   bands (ev):

   -44.5609 -44.4295   0.7872   2.4017   7.2909  10.3492  12.3067

          k = 0.3603-0.3603 0.1893 (  1258 PWs)   bands (ev):

   -44.5216 -44.4403   0.6876   2.6924   5.8152   9.2792  14.6639

          k =-0.0763 0.0763 0.6077 (  1260 PWs)   bands (ev):

   -44.5284 -44.4289   1.3082   4.8104   5.7766   7.9273  10.0729

          k = 0.1145 0.7405-0.0565 (  1270 PWs)   bands (ev):

   -44.4828 -44.4828   2.9001   2.9001   6.9778   6.9778  10.0552

          k = 0.1145-0.1145-0.9115 (  1264 PWs)   bands (ev):

   -44.4789 -44.4789   5.2297   5.2297   5.2297   5.2297   7.5895

          k = 0.0000 0.1710 0.1710 (  1274 PWs)   bands (ev):

   -44.5905 -44.4097  -1.3159   6.0664   8.9673  10.0816  12.8728

          k = 0.0000 0.3420 0.3420 (  1280 PWs)   bands (ev):

   -44.5790 -44.4156  -0.0324   4.1777   7.9733   8.3560  12.7108

          k =-0.0000-0.5130-0.5130 (  1272 PWs)   bands (ev):

   -44.5695 -44.4194   1.2056   3.5087   5.4496   8.2846  12.0506

          k =-0.0947 0.0947-0.2657 (  1276 PWs)   bands (ev):

   -44.5573 -44.4232  -1.0278   5.5050   6.9011   9.4448  15.6719

          k =-0.1710-0.3420-0.1710 (  1276 PWs)   bands (ev):

   -44.5845 -44.4069  -0.4323   4.5378   8.7271   9.6180  10.9126

          k =-0.2855-0.5695 0.3985 (  1267 PWs)   bands (ev):

   -44.4979 -44.4789   0.0239   2.9367   7.1733  10.3730  13.6211

          k =-0.1328-0.5512-0.6458 (  1267 PWs)   bands (ev):

   -44.5616 -44.4184   1.0196   2.7795   6.2803   9.5704  11.9876

          k =-0.1710 0.5130 0.6840 (  1267 PWs)   bands (ev):

   -44.5720 -44.4156   1.2192   3.4632   5.8176   8.9440  10.3466

          k =-0.3420 0.3420 0.6840 (  1256 PWs)   bands (ev):

   -44.5655 -44.4250   3.1297   3.3335   3.3335   9.1752  10.8621

          k = 0.0382 0.4748 0.2092 (  1272 PWs)   bands (ev):

   -44.5652 -44.4197   0.3081   4.5046   7.2956   7.9825  11.6242

          k = 0.0382-0.3802-0.6458 (  1282 PWs)   bands (ev):

   -44.5603 -44.4261   1.6536   3.8366   5.3677   7.9006  11.0336

          k =-0.2855-0.7405 0.2275 (  1268 PWs)   bands (ev):

   -44.4923 -44.4773   0.9909   3.1012   5.9767  11.2362  11.4975

          k =-0.2092 0.3802 0.8168 (  1268 PWs)   bands (ev):

   -44.5574 -44.4273   2.0970   4.7045   5.1929   7.4049   9.3725

          k = 0.5695 0.4565 0.5695 (  1277 PWs)   bands (ev):

   -44.5096 -44.4731  -0.4642   5.2172   5.2172   8.5385  17.5425

          k = 0.5512 0.4748-0.3038 (  1258 PWs)   bands (ev):

   -44.5570 -44.4336   1.8754   2.3624   4.7659   9.5795  11.8794

          k = 0.0763-0.2473-0.7787 (  1270 PWs)   bands (ev):

   -44.5236 -44.4317   2.9964   4.6677   5.2683   7.2475   8.3420

     the Fermi energy is     1.9869 ev

!    total energy              =     -30.02674603 Ry
     total all-electron energy =       -30.026769 Ry
     estimated scf accuracy    <          8.5E-12 Ry
     smearing contrib. (-TS)   =      -0.00016804 Ry
     internal energy E=F+TS    =     -30.02657798 Ry

     The total energy is F=E-TS. E is the sum of the following terms:
     one-electron contribution =     -19.58137881 Ry
     hartree contribution      =       7.67842903 Ry
     xc contribution           =      -7.25150832 Ry
     ewald contribution        =     -11.03333446 Ry
     one-center paw contrib.   =       0.16121459 Ry

     convergence has been achieved in   3 iterations

     Forces acting on atoms (cartesian axes, Ry/au):

     atom    1 type  1   force =    -0.00000000   -0.00000000    0.00000000
     atom    2 type  1   force =     0.00000000    0.00000000   -0.00000000

     Total force =     0.000000     Total SCF correction =     0.000000


     Computing stress (Cartesian axis) and pressure

          total   stress  (Ry/bohr**3)                   (kbar)     P=        0.30
   0.00000205  -0.00000009   0.00000009            0.30       -0.01        0.01
  -0.00000009   0.00000205  -0.00000009           -0.01        0.30       -0.01
   0.00000009  -0.00000009   0.00000205            0.01       -0.01        0.30

     Energy error            =      1.2E-06 Ry
     Gradient error          =      8.4E-31 Ry/Bohr
     Cell gradient error     =      3.0E-01 kbar

     bfgs converged in   8 scf cycles and   7 bfgs steps
     (criteria: energy <  1.0E-04 Ry, force <  1.0E-03 Ry/Bohr, cell <  5.0E-01 kbar)

     End of BFGS Geometry Optimization

     Final enthalpy           =     -30.0267460254 Ry

     File ./tmp/Li_BCC.bfgs deleted, as requested
Begin final coordinates
     new unit-cell volume =    200.08925 a.u.^3 (    29.65017 Ang^3 )
     density =      0.77734 g/cm^3

CELL_PARAMETERS (alat=  6.60000000)
   0.569096747   0.405565981   0.569096747
  -0.569096747   0.569096747   0.405565981
  -0.405565981  -0.569096747   0.569096747

ATOMIC_POSITIONS (crystal)
Li              -0.0000000000        0.0000000000       -0.0000000000
Li               0.5000000000        0.5000000000        0.5000000000
End final coordinates



     Writing config-only to output data dir ./tmp/Li_BCC.save/ :
     XML data file

     Final scf calculation at the relaxed structure.
     The G-vectors are recalculated for the final unit cell
     Results may differ from those at the preceding step.

     Parallelization info
     --------------------
     sticks:   dense  smooth     PW     G-vecs:    dense   smooth      PW
     Min         208     182     55                 4382     3563     610
     Max         210     183     56                 4383     3564     611
     Sum         837     729    223                17529    14253    2443

     Using Slab Decomposition



     bravais-lattice index     =            3
     lattice parameter (alat)  =       6.6000  a.u.
     unit-cell volume          =     200.0892 (a.u.)^3
     number of atoms/cell      =            2
     number of atomic types    =            1
     number of electrons       =         6.00
     number of Kohn-Sham states=            7
     kinetic-energy cutoff     =      65.0000  Ry
     charge density cutoff     =     300.0000  Ry
     scf convergence threshold =      1.0E-10
     mixing beta               =       0.7000
     number of iterations used =            8  plain     mixing
     press convergence thresh. =      5.0E-01
     Exchange-correlation= SLA  PW   PBX  PBC
                           (   1   4   3   4   0   0   0)

     celldm(1)=   6.600000  celldm(2)=   0.000000  celldm(3)=   0.000000
     celldm(4)=   0.000000  celldm(5)=   0.000000  celldm(6)=   0.000000

     crystal axes: (cart. coord. in units of alat)
               a(1) = (   0.569097   0.405566   0.569097 )  
               a(2) = (  -0.569097   0.569097   0.405566 )  
               a(3) = (  -0.405566  -0.569097   0.569097 )  

     reciprocal axes: (cart. coord. in units 2 pi/alat)
               b(1) = (  0.796982  0.229014  0.796982 )  
               b(2) = ( -0.796982  0.796982  0.229014 )  
               b(3) = ( -0.229014 -0.796982  0.796982 )  


     PseudoPot. # 1 for Li read from file:
     ../pseudopotentials/Li.pbe-s-kjpaw_psl.1.0.0.UPF
     MD5 check sum: d3662511b3860c829f7212fdb89d6128
     Pseudo is Projector augmented-wave, Zval =  3.0
     Generated using &quot;atomic&quot; code by A. Dal Corso  v.6.3
     Shape of augmentation charge: PSQ
     Using radial grid of 1017 points,  4 beta functions with: 
                l(1) =   0
                l(2) =   0
                l(3) =   1
                l(4) =   1
     Q(r) pseudized with 0 coefficients 


     atomic species   valence    mass     pseudopotential
     Li                3.00     6.94000     Li( 1.00)

     12 Sym. Ops., with inversion, found



   Cartesian axes

     site n.     atom                  positions (alat units)
         1        Li     tau(   1) = (  -0.0000000   0.0000000  -0.0000000  )
         2        Li     tau(   2) = (  -0.2027830   0.2027830   0.7718797  )

     number of k points=    32  Gaussian smearing, width (Ry)=  0.0100
                       cart. coord. in units 2pi/alat
        k(    1) = (   0.0000000   0.0000000   0.0000000), wk =   0.0092593
        k(    2) = (  -0.0381690  -0.1328303   0.1328303), wk =   0.0555556
        k(    3) = (  -0.0763380  -0.2656607   0.2656607), wk =   0.0555556
        k(    4) = (   0.1145070   0.3984910  -0.3984910), wk =   0.0277778
        k(    5) = (  -0.2091683  -0.1328303   0.3038297), wk =   0.1111111
        k(    6) = (  -0.0183234   0.5313213  -0.3603220), wk =   0.1111111
        k(    7) = (  -0.1893227   0.5313213  -0.1893227), wk =   0.0555556
        k(    8) = (  -0.0381690   0.0381690   0.3038297), wk =   0.0555556
        k(    9) = (  -0.0763380  -0.0946613   0.4366600), wk =   0.1111111
        k(   10) = (   0.1145070   0.5694903  -0.2274917), wk =   0.0555556
        k(   11) = (  -0.0183234   0.7023207  -0.1893227), wk =   0.1111111
        k(   12) = (   0.4931524  -0.4931524   0.1511537), wk =   0.0555556
        k(   13) = (   0.3603220  -0.3603220   0.1893227), wk =   0.0555556
        k(   14) = (  -0.0763380   0.0763380   0.6076593), wk =   0.0555556
        k(   15) = (   0.1145070   0.7404897  -0.0564924), wk =   0.0555556
        k(   16) = (   0.1145070  -0.1145070  -0.9114890), wk =   0.0092593
        k(   17) = (   0.0000000   0.1709993   0.1709993), wk =   0.0555556
        k(   18) = (   0.0000000   0.3419986   0.3419986), wk =   0.0555556
        k(   19) = (  -0.0000000  -0.5129980  -0.5129980), wk =   0.0277778
        k(   20) = (  -0.0946613   0.0946613  -0.2656607), wk =   0.0555556
        k(   21) = (  -0.1709993  -0.3419986  -0.1709993), wk =   0.0555556
        k(   22) = (  -0.2855063  -0.5694903   0.3984910), wk =   0.1111111
        k(   23) = (  -0.1328303  -0.5511670  -0.6458283), wk =   0.1111111
        k(   24) = (  -0.1709993   0.5129980   0.6839973), wk =   0.1111111
        k(   25) = (  -0.3419986   0.3419986   0.6839973), wk =   0.0185185
        k(   26) = (   0.0381690   0.4748290   0.2091683), wk =   0.1111111
        k(   27) = (   0.0381690  -0.3801676  -0.6458283), wk =   0.0555556
        k(   28) = (  -0.2855063  -0.7404897   0.2274917), wk =   0.0555556
        k(   29) = (  -0.2091683   0.3801676   0.8168276), wk =   0.0555556
        k(   30) = (   0.5694903   0.4565056   0.5694903), wk =   0.0185185
        k(   31) = (   0.5511670   0.4748290  -0.3038297), wk =   0.0555556
        k(   32) = (   0.0763380  -0.2473373  -0.7786586), wk =   0.0555556

     Dense  grid:    17529 G-vectors     FFT dimensions: (  36,  36,  36)

     Smooth grid:    14253 G-vectors     FFT dimensions: (  32,  32,  32)

     Estimated max dynamical RAM per process >       8.45 MB

     Estimated total dynamical RAM >      33.78 MB

     Initial potential from superposition of free atoms

     starting charge       5.9908, renormalised to       6.0000
     Starting wfcs are   10 randomized atomic wfcs
     Checking if some PAW data can be deallocated... 

     total cpu time spent up to now is        5.5 secs

     Self-consistent Calculation

     iteration #  1     ecut=    65.00 Ry     beta= 0.70
     Davidson diagonalization with overlap
     c_bands:  1 eigenvalues not converged
     c_bands:  1 eigenvalues not converged
     ethr =  1.00E-06,  avg # of iterations = 12.2

     total cpu time spent up to now is        5.8 secs

     total energy              =     -30.05721144 Ry
     estimated scf accuracy    <       0.00171968 Ry

     iteration #  2     ecut=    65.00 Ry     beta= 0.70
     Davidson diagonalization with overlap
     ethr =  2.87E-05,  avg # of iterations =  1.0

     total cpu time spent up to now is        5.9 secs

     total energy              =     -30.05722837 Ry
     estimated scf accuracy    <       0.00011739 Ry

     iteration #  3     ecut=    65.00 Ry     beta= 0.70
     Davidson diagonalization with overlap
     ethr =  1.96E-06,  avg # of iterations =  2.0

     total cpu time spent up to now is        6.0 secs

     total energy              =     -30.05723812 Ry
     estimated scf accuracy    <       0.00000239 Ry

     iteration #  4     ecut=    65.00 Ry     beta= 0.70
     Davidson diagonalization with overlap
     ethr =  3.98E-08,  avg # of iterations =  2.0

     total cpu time spent up to now is        6.1 secs

     total energy              =     -30.05723841 Ry
     estimated scf accuracy    <       0.00000037 Ry

     iteration #  5     ecut=    65.00 Ry     beta= 0.70
     Davidson diagonalization with overlap
     ethr =  6.11E-09,  avg # of iterations =  1.2

     total cpu time spent up to now is        6.2 secs

     total energy              =     -30.05723843 Ry
     estimated scf accuracy    <          5.4E-10 Ry

     iteration #  6     ecut=    65.00 Ry     beta= 0.70
     Davidson diagonalization with overlap
     ethr =  8.97E-12,  avg # of iterations =  4.1

     total cpu time spent up to now is        6.3 secs

     total energy              =     -30.05723844 Ry
     estimated scf accuracy    <          1.0E-09 Ry

     iteration #  7     ecut=    65.00 Ry     beta= 0.70
     Davidson diagonalization with overlap
     ethr =  8.97E-12,  avg # of iterations =  2.0

     total cpu time spent up to now is        6.4 secs

     End of self-consistent calculation

          k = 0.0000 0.0000 0.0000 (  1783 PWs)   bands (ev):

   -44.3466 -44.1663  -1.8435   7.7579  10.0261  10.0261  11.9695

          k =-0.0382-0.1328 0.1328 (  1764 PWs)   bands (ev):

   -44.3333 -44.1772  -1.5433   6.2774   8.8468   9.9561  12.9219

          k =-0.0763-0.2657 0.2657 (  1779 PWs)   bands (ev):

   -44.2981 -44.2080  -0.6236   3.3018   9.8417  10.3155  13.2833

          k = 0.1145 0.3985-0.3985 (  1786 PWs)   bands (ev):

   -44.2519 -44.2519   0.9732   0.9732  11.4311  11.4311  11.5471

          k =-0.2092-0.1328 0.3038 (  1773 PWs)   bands (ev):

   -44.3191 -44.1844  -0.6297   3.9659   9.4858  10.3526  11.4453

          k =-0.0183 0.5313-0.3603 (  1773 PWs)   bands (ev):

   -44.2834 -44.2179   0.7919   1.6637   8.3942  11.3079  11.7280

          k =-0.1893 0.5313-0.1893 (  1773 PWs)   bands (ev):

   -44.2761 -44.2229   1.1194   2.2896   5.6314  11.1273  12.1806

          k =-0.0382 0.0382 0.3038 (  1776 PWs)   bands (ev):

   -44.3257 -44.1802  -1.0866   6.3552   6.6838  10.8518  12.7119

          k =-0.0763-0.0947 0.4367 (  1774 PWs)   bands (ev):

   -44.2927 -44.2088  -0.1550   3.7198   7.3485  10.7334  12.1099

          k = 0.1145 0.5695-0.2275 (  1766 PWs)   bands (ev):

   -44.2497 -44.2497   1.4379   1.4379   8.8097   8.8097  14.0845

          k =-0.0183 0.7023-0.1893 (  1759 PWs)   bands (ev):

   -44.2801 -44.2146   1.5766   2.6334   6.4818   8.8447  12.1600

          k = 0.4932-0.4932 0.1512 (  1771 PWs)   bands (ev):

   -44.3061 -44.1926   0.7548   2.3806   7.2972  10.2269  11.6218

          k = 0.3603-0.3603 0.1893 (  1777 PWs)   bands (ev):

   -44.2741 -44.2271   0.6262   2.6822   5.8210   9.1542  14.6809

          k =-0.0763 0.0763 0.6077 (  1760 PWs)   bands (ev):

   -44.2821 -44.2104   1.2758   4.8156   5.7741   7.9337  10.0030

          k = 0.1145 0.7405-0.0565 (  1762 PWs)   bands (ev):

   -44.2452 -44.2452   2.8847   2.8847   6.9572   6.9572  10.0666

          k = 0.1145-0.1145-0.9115 (  1784 PWs)   bands (ev):

   -44.2430 -44.2430   5.2351   5.2351   5.2351   5.2351   7.5576

          k = 0.0000 0.1710 0.1710 (  1772 PWs)   bands (ev):

   -44.3380 -44.1701  -1.3923   6.0999   8.9524  10.0989  12.8503

          k = 0.0000 0.3420 0.3420 (  1770 PWs)   bands (ev):

   -44.3210 -44.1777  -0.0733   4.2044   7.9115   8.2981  11.9372

          k =-0.0000-0.5130-0.5130 (  1776 PWs)   bands (ev):

   -44.3125 -44.1814   1.2106   3.5340   5.3370   8.1995  12.0662

          k =-0.0947 0.0947-0.2657 (  1778 PWs)   bands (ev):

   -44.3054 -44.2030  -1.1003   5.5104   6.8762   9.4564  15.6828

          k =-0.1710-0.3420-0.1710 (  1768 PWs)   bands (ev):

   -44.3253 -44.1758  -0.4834   4.5565   8.7331   9.6254  10.8591

          k =-0.2855-0.5695 0.3985 (  1775 PWs)   bands (ev):

   -44.2626 -44.2412  -0.0409   2.9197   7.1412  10.3632  13.6419

          k =-0.1328-0.5512-0.6458 (  1767 PWs)   bands (ev):

   -44.3049 -44.1915   1.0044   2.7688   6.2005   9.5329  11.9813

          k =-0.1710 0.5130 0.6840 (  1767 PWs)   bands (ev):

   -44.3125 -44.1814   1.2055   3.4755   5.7864   8.9126  10.2381

          k =-0.3420 0.3420 0.6840 (  1768 PWs)   bands (ev):

   -44.3082 -44.1833   3.1329   3.3388   3.3388   8.9794  10.8685

          k = 0.0382 0.4748 0.2092 (  1768 PWs)   bands (ev):

   -44.3104 -44.1862   0.2687   4.5227   7.3003   7.9484  11.5753

          k = 0.0382-0.3802-0.6458 (  1764 PWs)   bands (ev):

   -44.3027 -44.1892   1.6586   3.8540   5.2879   7.8723  10.9835

          k =-0.2855-0.7405 0.2275 (  1761 PWs)   bands (ev):

   -44.2539 -44.2432   0.9439   3.1063   5.9075  11.2506  11.5054

          k =-0.2092 0.3802 0.8168 (  1768 PWs)   bands (ev):

   -44.3016 -44.1881   2.0883   4.7342   5.1985   7.4105   9.2225

          k = 0.5695 0.4565 0.5695 (  1795 PWs)   bands (ev):

   -44.2690 -44.2370  -0.5369   5.2227   5.2227   8.4498  17.2453

          k = 0.5512 0.4748-0.3038 (  1774 PWs)   bands (ev):

   -44.2995 -44.1967   1.8477   2.3675   4.7441   9.4366  11.8540

          k = 0.0763-0.2473-0.7787 (  1769 PWs)   bands (ev):

   -44.2767 -44.2112   3.0016   4.6659   5.2423   7.2712   8.3480

     the Fermi energy is     1.9685 ev

!    total energy              =     -30.05723844 Ry
     total all-electron energy =       -30.057261 Ry
     estimated scf accuracy    <          4.2E-12 Ry
     smearing contrib. (-TS)   =      -0.00014715 Ry
     internal energy E=F+TS    =     -30.05709129 Ry

     The total energy is F=E-TS. E is the sum of the following terms:
     one-electron contribution =     -19.66701398 Ry
     hartree contribution      =       7.77511133 Ry
     xc contribution           =      -7.29834893 Ry
     ewald contribution        =     -11.03333274 Ry
     one-center paw contrib.   =       0.16649302 Ry

     convergence has been achieved in   7 iterations

     Forces acting on atoms (cartesian axes, Ry/au):

     atom    1 type  1   force =     0.00000000    0.00000000    0.00000000
     atom    2 type  1   force =    -0.00000000   -0.00000000   -0.00000000

     Total force =     0.000000     Total SCF correction =     0.000000


     Computing stress (Cartesian axis) and pressure

          total   stress  (Ry/bohr**3)                   (kbar)     P=       62.75
   0.00042659  -0.00037293   0.00037293           62.75      -54.86       54.86
  -0.00037293   0.00042659  -0.00037293          -54.86       62.75      -54.86
   0.00037293  -0.00037293   0.00042659           54.86      -54.86       62.75


     Writing all to output data dir ./tmp/Li_BCC.save/ :
     XML data file, charge density, pseudopotentials, collected wavefunctions

     init_run     :      0.19s CPU      0.21s WALL (       2 calls)
     electrons    :      5.34s CPU      5.67s WALL (       9 calls)
     update_pot   :      0.06s CPU      0.07s WALL (       7 calls)
     forces       :      0.08s CPU      0.09s WALL (       9 calls)
     stress       :      0.26s CPU      0.27s WALL (       9 calls)

     Called by init_run:
     wfcinit      :      0.09s CPU      0.10s WALL (       2 calls)
     potinit      :      0.02s CPU      0.03s WALL (       2 calls)
     hinit0       :      0.06s CPU      0.06s WALL (       2 calls)

     Called by electrons:
     c_bands      :      4.21s CPU      4.47s WALL (      43 calls)
     sum_band     :      0.69s CPU      0.73s WALL (      43 calls)
     v_of_rho     :      0.08s CPU      0.09s WALL (      48 calls)
     newd         :      0.05s CPU      0.06s WALL (      48 calls)
     PAW_pot      :      0.41s CPU      0.44s WALL (      55 calls)
     mix_rho      :      0.01s CPU      0.01s WALL (      43 calls)

     Called by c_bands:
     init_us_2    :      0.12s CPU      0.12s WALL (    3616 calls)
     cegterg      :      4.10s CPU      4.35s WALL (    1376 calls)

     Called by *egterg:
     cdiaghg      :      0.18s CPU      0.19s WALL (    4634 calls)
     h_psi        :      3.25s CPU      3.41s WALL (    5050 calls)
     s_psi        :      0.09s CPU      0.10s WALL (    5050 calls)
     g_psi        :      0.01s CPU      0.01s WALL (    3610 calls)

     Called by h_psi:
     h_psi:calbec :      0.16s CPU      0.21s WALL (    5050 calls)
     vloc_psi     :      2.98s CPU      3.07s WALL (    5050 calls)
     add_vuspsi   :      0.10s CPU      0.11s WALL (    5050 calls)

     General routines
     calbec       :      0.27s CPU      0.34s WALL (    8090 calls)
     fft          :      0.05s CPU      0.06s WALL (     689 calls)
     ffts         :      0.01s CPU      0.01s WALL (      91 calls)
     fftw         :      3.21s CPU      3.30s WALL (   63184 calls)
     interpolate  :      0.01s CPU      0.01s WALL (      48 calls)

     Parallel routines

     PWSCF        :      6.06s CPU      6.52s WALL


   This run was terminated on:  13:59: 0   3Feb2025            

=------------------------------------------------------------------------------=
   JOB DONE.
=------------------------------------------------------------------------------=
