
     Program PWSCF v.7.3.1 starts on 21Jan2025 at  7:59:35 

     This program is part of the open-source Quantum ESPRESSO suite
     for quantum simulation of materials; please cite
         "P. Giannozzi et al., J. Phys.:Condens. Matter 21 395502 (2009);
         "P. Giannozzi et al., J. Phys.:Condens. Matter 29 465901 (2017);
         "P. Giannozzi et al., J. Chem. Phys. 152 154105 (2020);
          URL http://www.quantum-espresso.org", 
     in publications or presentations arising from this work. More details at
     http://www.quantum-espresso.org/quote

     Parallel version (MPI), running on     4 processors

     MPI processes distributed on     1 nodes
     0 MiB available memory on the printing compute node when the environment starts

     Reading input from li_scf_single.in

     Current dimensions of program PWSCF are:
     Max number of different atomic species (ntypx) = 10
     Max number of k-points (npk) =  40000
     Max angular momentum in pseudopotentials (lmaxx) =  4
     Found identity + ( -0.5000 -0.5000 -0.5000) symmetry
     This is a supercell, fractional translations are disabled

     R & G space division:  proc/nbgrp/npool/nimage =       4
     Subspace diagonalization in iterative solution of the eigenvalue problem:
     a serial algorithm will be used


     Parallelization info
     --------------------
     sticks:   dense  smooth     PW     G-vecs:    dense   smooth      PW
     Min         420     168     53                10980     2758     490
     Max         421     169     54                10982     2759     491
     Sum        1681     673    213                43923    11033    1961

     Using Slab Decomposition



     bravais-lattice index     =            3
     lattice parameter (alat)  =      10.0000  a.u.
     unit-cell volume          =     500.0000 (a.u.)^3
     number of atoms/cell      =            2
     number of atomic types    =            1
     number of electrons       =         6.00
     number of Kohn-Sham states=            7
     kinetic-energy cutoff     =      30.0000  Ry
     charge density cutoff     =     300.0000  Ry
     scf convergence threshold =      1.0E-08
     mixing beta               =       0.7000
     number of iterations used =            8  plain     mixing
     energy convergence thresh.=      1.0E-04
     force convergence thresh. =      1.0E-03
     press convergence thresh. =      5.0E-01
     Exchange-correlation= SLA  PW   PBX  PBC
                           (   1   4   3   4   0   0   0)
     nstep                     =           50


     celldm(1)=  10.000000  celldm(2)=   0.000000  celldm(3)=   0.000000
     celldm(4)=   0.000000  celldm(5)=   0.000000  celldm(6)=   0.000000

     crystal axes: (cart. coord. in units of alat)
               a(1) = (   0.500000   0.500000   0.500000 )  
               a(2) = (  -0.500000   0.500000   0.500000 )  
               a(3) = (  -0.500000  -0.500000   0.500000 )  

     reciprocal axes: (cart. coord. in units 2 pi/alat)
               b(1) = (  1.000000  0.000000  1.000000 )  
               b(2) = ( -1.000000  1.000000  0.000000 )  
               b(3) = (  0.000000 -1.000000  1.000000 )  


     PseudoPot. # 1 for Li read from file:
     ../pseudopotentials/Li.pbe-s-kjpaw_psl.1.0.0.UPF
     MD5 check sum: d3662511b3860c829f7212fdb89d6128
     Pseudo is Projector augmented-wave, Zval =  3.0
     Generated using &quot;atomic&quot; code by A. Dal Corso  v.6.3
     Shape of augmentation charge: PSQ
     Using radial grid of 1017 points,  4 beta functions with: 
                l(1) =   0
                l(2) =   0
                l(3) =   1
                l(4) =   1
     Q(r) pseudized with 0 coefficients 


     atomic species   valence    mass     pseudopotential
     Li                3.00     6.94000     Li( 1.00)

     12 Sym. Ops., with inversion, found



   Cartesian axes

     site n.     atom                  positions (alat units)
         1        Li     tau(   1) = (   0.0000000   0.0000000   0.0000000  )
         2        Li     tau(   2) = (  -0.2500000   0.2500000   0.7500000  )

     number of k points=    32  Gaussian smearing, width (Ry)=  0.0100
                       cart. coord. in units 2pi/alat
        k(    1) = (   0.0000000   0.0000000   0.0000000), wk =   0.0092593
        k(    2) = (   0.0000000  -0.1666667   0.1666667), wk =   0.0555556
        k(    3) = (   0.0000000  -0.3333333   0.3333333), wk =   0.0555556
        k(    4) = (   0.0000000   0.5000000  -0.5000000), wk =   0.0277778
        k(    5) = (  -0.1666667  -0.1666667   0.3333333), wk =   0.1111111
        k(    6) = (  -0.1666667   0.6666667  -0.5000000), wk =   0.1111111
        k(    7) = (  -0.3333333   0.6666667  -0.3333333), wk =   0.0555556
        k(    8) = (   0.0000000   0.0000000   0.3333333), wk =   0.0555556
        k(    9) = (   0.0000000  -0.1666667   0.5000000), wk =   0.1111111
        k(   10) = (   0.0000000   0.6666667  -0.3333333), wk =   0.0555556
        k(   11) = (  -0.1666667   0.8333333  -0.3333333), wk =   0.1111111
        k(   12) = (   0.6666667  -0.6666667   0.3333333), wk =   0.0555556
        k(   13) = (   0.5000000  -0.5000000   0.3333333), wk =   0.0555556
        k(   14) = (   0.0000000   0.0000000   0.6666667), wk =   0.0555556
        k(   15) = (   0.0000000   0.8333333  -0.1666667), wk =   0.0555556
        k(   16) = (   0.0000000   0.0000000  -1.0000000), wk =   0.0092593
        k(   17) = (   0.0000000   0.1666667   0.1666667), wk =   0.0555556
        k(   18) = (   0.0000000   0.3333333   0.3333333), wk =   0.0555556
        k(   19) = (   0.0000000  -0.5000000  -0.5000000), wk =   0.0277778
        k(   20) = (  -0.1666667   0.1666667  -0.3333333), wk =   0.0555556
        k(   21) = (  -0.1666667  -0.3333333  -0.1666667), wk =   0.0555556
        k(   22) = (  -0.1666667  -0.6666667   0.5000000), wk =   0.1111111
        k(   23) = (  -0.1666667  -0.5000000  -0.6666667), wk =   0.1111111
        k(   24) = (  -0.1666667   0.5000000   0.6666667), wk =   0.1111111
        k(   25) = (  -0.3333333   0.3333333   0.6666667), wk =   0.0185185
        k(   26) = (   0.0000000   0.5000000   0.1666667), wk =   0.1111111
        k(   27) = (   0.0000000  -0.3333333  -0.6666667), wk =   0.0555556
        k(   28) = (  -0.1666667  -0.8333333   0.3333333), wk =   0.0555556
        k(   29) = (  -0.1666667   0.3333333   0.8333333), wk =   0.0555556
        k(   30) = (   0.6666667   0.3333333   0.6666667), wk =   0.0185185
        k(   31) = (   0.5000000   0.5000000  -0.3333333), wk =   0.0555556
        k(   32) = (   0.0000000  -0.1666667  -0.8333333), wk =   0.0555556

     Dense  grid:    43923 G-vectors     FFT dimensions: (  48,  48,  48)

     Smooth grid:    11033 G-vectors     FFT dimensions: (  32,  32,  32)

     Estimated max dynamical RAM per process >      16.88 MB

     Estimated total dynamical RAM >      67.51 MB

     Initial potential from superposition of free atoms

     starting charge       5.9908, renormalised to       6.0000
     Starting wfcs are   10 randomized atomic wfcs
     Checking if some PAW data can be deallocated... 

     total cpu time spent up to now is        0.3 secs

     Self-consistent Calculation

     iteration #  1     ecut=    30.00 Ry     beta= 0.70
     Davidson diagonalization with overlap
     ethr =  1.00E-02,  avg # of iterations =  3.0

     Threshold (ethr) on eigenvalues was too large:
     Diagonalizing with lowered threshold

     Davidson diagonalization with overlap
     ethr =  2.46E-04,  avg # of iterations =  2.2

     total cpu time spent up to now is        0.5 secs

     total energy              =     -29.80671684 Ry
     estimated scf accuracy    <       0.01471218 Ry

     iteration #  2     ecut=    30.00 Ry     beta= 0.70
     Davidson diagonalization with overlap
     ethr =  2.45E-04,  avg # of iterations =  1.0

     total cpu time spent up to now is        0.7 secs

     total energy              =     -29.80747178 Ry
     estimated scf accuracy    <       0.00052388 Ry

     iteration #  3     ecut=    30.00 Ry     beta= 0.70
     Davidson diagonalization with overlap
     ethr =  8.73E-06,  avg # of iterations =  2.5

     total cpu time spent up to now is        0.8 secs

     total energy              =     -29.80756935 Ry
     estimated scf accuracy    <       0.00000679 Ry

     iteration #  4     ecut=    30.00 Ry     beta= 0.70
     Davidson diagonalization with overlap
     ethr =  1.13E-07,  avg # of iterations =  2.2

     total cpu time spent up to now is        0.9 secs

     total energy              =     -29.80757052 Ry
     estimated scf accuracy    <       0.00000013 Ry

     iteration #  5     ecut=    30.00 Ry     beta= 0.70
     Davidson diagonalization with overlap
     ethr =  2.24E-09,  avg # of iterations =  1.9

     total cpu time spent up to now is        1.0 secs

     End of self-consistent calculation

          k = 0.0000 0.0000 0.0000 (  1409 PWs)   bands (ev):

   -49.8333 -49.6945  -3.1217   1.6118   3.5831   3.5831   6.1755

          k = 0.0000-0.1667 0.1667 (  1400 PWs)   bands (ev):

   -49.8034 -49.7074  -2.8789   1.4188   3.4308   3.5828   4.1802

          k = 0.0000-0.3333 0.3333 (  1376 PWs)   bands (ev):

   -49.7474 -49.7191  -2.1607   0.4325   3.0739   3.1691   3.5584

          k = 0.0000 0.5000-0.5000 (  1376 PWs)   bands (ev):

   -49.7329 -49.7329  -1.0031  -1.0031   2.9848   2.9849   3.6682

          k =-0.1667-0.1667 0.3333 (  1389 PWs)   bands (ev):

   -49.7959 -49.6951  -2.3929   0.9817   1.8876   2.8812   4.3360

          k =-0.1667 0.6667-0.5000 (  1389 PWs)   bands (ev):

   -49.7739 -49.7147  -1.4273  -0.2413   1.4714   2.7575   3.9549

          k =-0.3333 0.6667-0.3333 (  1385 PWs)   bands (ev):

   -49.7677 -49.7125  -0.4761  -0.3510  -0.0343   2.5136   4.6537

          k = 0.0000 0.0000 0.3333 (  1385 PWs)   bands (ev):

   -49.7881 -49.6964  -2.6340   1.3531   2.7033   2.9741   3.7738

          k = 0.0000-0.1667 0.5000 (  1389 PWs)   bands (ev):

   -49.7738 -49.7172  -1.9183   0.6238   2.3526   2.3537   3.4534

          k = 0.0000 0.6667-0.3333 (  1382 PWs)   bands (ev):

   -49.7383 -49.7383  -0.7583  -0.7583   2.1274   2.1275   4.3221

          k =-0.1667 0.8333-0.3333 (  1384 PWs)   bands (ev):

   -49.7682 -49.7127  -0.9447   0.2066   0.5494   3.0035   3.1274

          k = 0.6667-0.6667 0.3333 (  1394 PWs)   bands (ev):

   -49.7953 -49.7018  -1.6689   0.4821   1.2140   1.2291   5.2673

          k = 0.5000-0.5000 0.3333 (  1390 PWs)   bands (ev):

   -49.7790 -49.7081  -0.7109  -0.4511   0.9919   1.0200   5.6018

          k = 0.0000 0.0000 0.6667 (  1393 PWs)   bands (ev):

   -49.7797 -49.7193  -1.1826   0.9599   1.6019   1.8047   2.0146

          k = 0.0000 0.8333-0.1667 (  1374 PWs)   bands (ev):

   -49.7320 -49.7320  -0.0259  -0.0259   1.4234   1.4234   2.9245

          k = 0.0000 0.0000-1.0000 (  1368 PWs)   bands (ev):

   -49.7255 -49.7255   0.9027   0.9028   1.3739   1.3739   1.3739

          k = 0.0000 0.1667 0.1667 (  1400 PWs)   bands (ev):

   -49.8151 -49.6954  -2.8771   1.4757   2.6117   3.1596   5.7812

          k = 0.0000 0.3333 0.3333 (  1376 PWs)   bands (ev):

   -49.7979 -49.6679  -2.1569   0.7954   1.2200   2.5745   5.4234

          k = 0.0000-0.5000-0.5000 (  1376 PWs)   bands (ev):

   -49.7881 -49.6769  -1.2349  -0.5592   1.1001   2.3479   5.3150

          k =-0.1667 0.1667-0.3333 (  1389 PWs)   bands (ev):

   -49.7648 -49.7268  -2.4089   1.1325   2.2910   3.5560   3.9630

          k =-0.1667-0.3333-0.1667 (  1389 PWs)   bands (ev):

   -49.7943 -49.6965  -2.3925   1.2789   1.7854   1.9073   5.8109

          k =-0.1667-0.6667 0.5000 (  1389 PWs)   bands (ev):

   -49.7499 -49.7390  -1.4988  -0.0260   1.4240   2.9226   4.0313

          k =-0.1667-0.5000-0.6667 (  1389 PWs)   bands (ev):

   -49.7964 -49.6917  -1.4480   0.1170   0.6454   2.4369   4.8234

          k =-0.1667 0.5000 0.6667 (  1389 PWs)   bands (ev):

   -49.7975 -49.6904  -1.4545   0.1043   1.0919   1.3889   5.6309

          k =-0.3333 0.3333 0.6667 (  1385 PWs)   bands (ev):

   -49.7895 -49.6902  -0.4020  -0.4020   0.2361   1.0252   6.1084

          k = 0.0000 0.5000 0.1667 (  1389 PWs)   bands (ev):

   -49.7915 -49.6990  -1.9104   1.0176   1.1562   2.2175   3.8770

          k = 0.0000-0.3333-0.6667 (  1382 PWs)   bands (ev):

   -49.7871 -49.6886  -0.9438  -0.3810   1.0436   1.9835   4.2514

          k =-0.1667-0.8333 0.3333 (  1384 PWs)   bands (ev):

   -49.7461 -49.7354  -1.0047   0.3916   0.5428   2.9848   3.6702

          k =-0.1667 0.3333 0.8333 (  1384 PWs)   bands (ev):

   -49.7761 -49.7047  -0.9588   0.4287   0.6641   1.3019   4.0524

          k = 0.6667 0.3333 0.6667 (  1394 PWs)   bands (ev):

   -49.7636 -49.7341  -1.7452   0.9028   1.3732   1.3732   5.3118

          k = 0.5000 0.5000-0.3333 (  1390 PWs)   bands (ev):

   -49.7915 -49.6952  -0.6649  -0.2106   0.2906   0.9941   5.7614

          k = 0.0000-0.1667-0.8333 (  1374 PWs)   bands (ev):

   -49.7560 -49.7077  -0.0722   0.1683   0.9659   1.4626   2.6067

     the Fermi energy is    -0.4586 ev

!    total energy              =     -29.80757059 Ry
     total all-electron energy =       -29.807593 Ry
     estimated scf accuracy    <          2.0E-09 Ry
     smearing contrib. (-TS)   =      -0.00069390 Ry
     internal energy E=F+TS    =     -29.80687669 Ry

     The total energy is F=E-TS. E is the sum of the following terms:
     one-electron contribution =     -25.07835848 Ry
     hartree contribution      =       9.29664619 Ry
     xc contribution           =      -6.89779326 Ry
     ewald contribution        =      -7.27236258 Ry
     one-center paw contrib.   =       0.14499144 Ry

     convergence has been achieved in   5 iterations

     Forces acting on atoms (cartesian axes, Ry/au):

     atom    1 type  1   force =     0.00000000    0.00000000    0.00000000
     atom    2 type  1   force =     0.00000000    0.00000000    0.00000000

     Total force =     0.000000     Total SCF correction =     0.000000


     Computing stress (Cartesian axis) and pressure

          total   stress  (Ry/bohr**3)                   (kbar)     P=     -119.92
  -0.00081518  -0.00035971   0.00035971         -119.92      -52.91       52.91
  -0.00035971  -0.00081518  -0.00035971          -52.91     -119.92      -52.91
   0.00035971  -0.00035971  -0.00081518           52.91      -52.91     -119.92


     BFGS Geometry Optimization
     Energy error            =      0.0E+00 Ry
     Gradient error          =      0.0E+00 Ry/Bohr
     Cell gradient error     =      1.2E+02 kbar

     number of scf cycles    =   1
     number of bfgs steps    =   0

     enthalpy           new  =     -29.8075705898 Ry

     new trust radius        =       0.1074297209 bohr
     new conv_thr            =       0.0000000100 Ry

     new unit-cell volume =    469.93148 a.u.^3 (    69.63666 Ang^3 )
     density =      0.33098 g/cm^3

CELL_PARAMETERS (alat= 10.00000000)
   0.489810277   0.480817629   0.489810277
  -0.489810277   0.489810277   0.480817629
  -0.480817629  -0.489810277   0.489810277

ATOMIC_POSITIONS (crystal)
Li               0.0000000000        0.0000000000        0.0000000000
Li               0.5000000000        0.5000000000        0.5000000000



     Writing config-only to output data dir ./tmp/Li_BCC.save/ :
     XML data file
     NEW-OLD atomic charge density approx. for the potential

     total cpu time spent up to now is        1.2 secs

     Self-consistent Calculation

     iteration #  1     ecut=    30.00 Ry     beta= 0.70
     Davidson diagonalization with overlap
     ethr =  1.00E-06,  avg # of iterations =  4.5

     total cpu time spent up to now is        1.4 secs

     total energy              =     -29.84093561 Ry
     estimated scf accuracy    <       0.00012115 Ry

     iteration #  2     ecut=    30.00 Ry     beta= 0.70
     Davidson diagonalization with overlap
     ethr =  2.02E-06,  avg # of iterations =  1.0

     total cpu time spent up to now is        1.5 secs

     total energy              =     -29.84092381 Ry
     estimated scf accuracy    <       0.00000964 Ry

     iteration #  3     ecut=    30.00 Ry     beta= 0.70
     Davidson diagonalization with overlap
     ethr =  1.61E-07,  avg # of iterations =  1.0

     total cpu time spent up to now is        1.6 secs

     total energy              =     -29.84092425 Ry
     estimated scf accuracy    <       0.00000003 Ry

     iteration #  4     ecut=    30.00 Ry     beta= 0.70
     Davidson diagonalization with overlap
     ethr =  5.55E-10,  avg # of iterations =  2.3

     total cpu time spent up to now is        1.7 secs

     End of self-consistent calculation

          k = 0.0000 0.0000 0.0000 (  1409 PWs)   bands (ev):

   -49.5574 -49.4171  -3.0815   1.9065   4.1242   4.1242   6.3511

          k =-0.0031-0.1686 0.1686 (  1400 PWs)   bands (ev):

   -49.5285 -49.4303  -2.8335   1.6989   3.9435   4.0967   4.3469

          k =-0.0062-0.3372 0.3372 (  1376 PWs)   bands (ev):

   -49.4770 -49.4436  -2.0986   0.6045   3.3523   3.6241   3.9927

          k = 0.0093 0.5058-0.5058 (  1376 PWs)   bands (ev):

   -49.4598 -49.4598  -0.9065  -0.9065   3.3670   3.3671   4.0142

          k =-0.1748-0.1686 0.3403 (  1389 PWs)   bands (ev):

   -49.5226 -49.4204  -2.3224   1.1796   2.2674   3.3223   4.5485

          k =-0.1593 0.6745-0.5027 (  1389 PWs)   bands (ev):

   -49.4999 -49.4412  -1.3257  -0.1323   1.7858   3.1372   4.2913

          k =-0.3310 0.6745-0.3310 (  1385 PWs)   bands (ev):

   -49.4939 -49.4388  -0.3857  -0.2455   0.2375   2.8791   5.0416

          k =-0.0031 0.0031 0.3403 (  1385 PWs)   bands (ev):

   -49.5158 -49.4209  -2.5760   1.6238   3.1653   3.4063   3.8988

          k =-0.0062-0.1655 0.5089 (  1389 PWs)   bands (ev):

   -49.4986 -49.4422  -1.8427   0.8230   2.5434   2.7311   3.8935

          k = 0.0093 0.6776-0.3341 (  1382 PWs)   bands (ev):

   -49.4637 -49.4637  -0.6463  -0.6463   2.4240   2.4240   4.7603

          k =-0.1593 0.8462-0.3310 (  1384 PWs)   bands (ev):

   -49.4952 -49.4386  -0.8228   0.3543   0.8079   3.3978   3.4074

          k = 0.6714-0.6714 0.3279 (  1394 PWs)   bands (ev):

   -49.5219 -49.4262  -1.5621   0.6136   1.4760   1.6135   5.5685

          k = 0.5027-0.5027 0.3310 (  1390 PWs)   bands (ev):

   -49.5042 -49.4342  -0.6375  -0.2994   1.2237   1.3362   6.0415

          k =-0.0062 0.0062 0.6806 (  1393 PWs)   bands (ev):

   -49.5051 -49.4442  -1.0675   1.2304   1.9703   2.0695   2.1314

          k = 0.0093 0.8493-0.1624 (  1374 PWs)   bands (ev):

   -49.4593 -49.4593   0.1363   0.1363   1.6707   1.6707   3.2354

          k = 0.0093-0.0093-1.0210 (  1368 PWs)   bands (ev):

   -49.4537 -49.4537   1.2479   1.2479   1.5361   1.5361   1.5361

          k =-0.0000 0.1717 0.1717 (  1400 PWs)   bands (ev):

   -49.5410 -49.4192  -2.8244   1.7401   3.0641   3.6492   5.9219

          k =-0.0000 0.3434 0.3434 (  1376 PWs)   bands (ev):

   -49.5250 -49.3955  -2.0691   1.1094   1.4318   3.0071   5.5446

          k = 0.0000-0.5151-0.5151 (  1376 PWs)   bands (ev):

   -49.5160 -49.4041  -1.1395  -0.2896   1.2894   2.7608   5.4323

          k =-0.1655 0.1655-0.3372 (  1389 PWs)   bands (ev):

   -49.4908 -49.4493  -2.3600   1.4312   2.4270   3.7979   4.4731

          k =-0.1717-0.3434-0.1717 (  1389 PWs)   bands (ev):

   -49.5225 -49.4214  -2.3154   1.5019   2.2061   2.2458   5.9939

          k =-0.1810-0.6776 0.5058 (  1389 PWs)   bands (ev):

   -49.4741 -49.4644  -1.4324   0.1372   1.6724   3.2331   4.4683

          k =-0.1686-0.5182-0.6837 (  1389 PWs)   bands (ev):

   -49.5225 -49.4172  -1.3375   0.3834   0.7954   2.8422   5.0765

          k =-0.1717 0.5151 0.6868 (  1389 PWs)   bands (ev):

   -49.5252 -49.4154  -1.3369   0.3670   1.2785   1.7444   5.7816

          k =-0.3434 0.3434 0.6868 (  1385 PWs)   bands (ev):

   -49.5175 -49.4152  -0.2481  -0.2481   0.6206   1.1987   6.3740

          k = 0.0031 0.5120 0.1748 (  1389 PWs)   bands (ev):

   -49.5187 -49.4248  -1.8162   1.3326   1.3840   2.6057   4.0248

          k = 0.0031-0.3465-0.6837 (  1382 PWs)   bands (ev):

   -49.5152 -49.4161  -0.8410  -0.1129   1.2474   2.3574   4.4357

          k =-0.1810-0.8493 0.3341 (  1384 PWs)   bands (ev):

   -49.4703 -49.4608  -0.9082   0.6466   0.6621   3.3667   4.0168

          k =-0.1748 0.3465 0.8555 (  1384 PWs)   bands (ev):

   -49.5057 -49.4300  -0.8216   0.6297   1.0309   1.5515   4.1974

          k = 0.6776 0.3527 0.6776 (  1394 PWs)   bands (ev):

   -49.4860 -49.4608  -1.6937   1.2522   1.5352   1.5352   5.8556

          k = 0.5182 0.5120-0.3403 (  1390 PWs)   bands (ev):

   -49.5186 -49.4202  -0.5428   0.0419   0.4011   1.3240   6.0920

          k = 0.0062-0.1779-0.8524 (  1374 PWs)   bands (ev):

   -49.4848 -49.4338   0.0528   0.4392   1.2131   1.7651   2.8090

     the Fermi energy is    -0.3071 ev

!    total energy              =     -29.84092430 Ry
     total all-electron energy =       -29.840947 Ry
     estimated scf accuracy    <          3.9E-10 Ry
     smearing contrib. (-TS)   =      -0.00064970 Ry
     internal energy E=F+TS    =     -29.84027459 Ry

     The total energy is F=E-TS. E is the sum of the following terms:
     one-electron contribution =     -24.72520574 Ry
     hartree contribution      =       9.18245597 Ry
     xc contribution           =      -6.92643661 Ry
     ewald contribution        =      -7.51833818 Ry
     one-center paw contrib.   =       0.14724997 Ry

     convergence has been achieved in   4 iterations

     Forces acting on atoms (cartesian axes, Ry/au):

     atom    1 type  1   force =     0.00000000   -0.00000000   -0.00000000
     atom    2 type  1   force =    -0.00000000    0.00000000    0.00000000

     Total force =     0.000000     Total SCF correction =     0.000000


     Computing stress (Cartesian axis) and pressure

          total   stress  (Ry/bohr**3)                   (kbar)     P=     -114.45
  -0.00077803  -0.00034698   0.00034698         -114.45      -51.04       51.04
  -0.00034698  -0.00077803  -0.00034698          -51.04     -114.45      -51.04
   0.00034698  -0.00034698  -0.00077803           51.04      -51.04     -114.45

     Energy error            =      3.3E-02 Ry
     Gradient error          =      5.3E-31 Ry/Bohr
     Cell gradient error     =      1.1E+02 kbar

     number of scf cycles    =   2
     number of bfgs steps    =   1

     enthalpy           old  =     -29.8075705898 Ry
     enthalpy           new  =     -29.8409242972 Ry

     CASE: enthalpy          _new < enthalpy          _old


     WARNING: bfgs curvature condition failed, Theta= 0.863
     new trust radius        =       0.1609373463 bohr
     new conv_thr            =            1.0E-10 Ry

     new unit-cell volume =    426.80575 a.u.^3 (    63.24609 Ang^3 )
     density =      0.36442 g/cm^3

CELL_PARAMETERS (alat= 10.00000000)
   0.474568380   0.451991124   0.474568380
  -0.474568380   0.474568380   0.451991124
  -0.451991124  -0.474568380   0.474568380

ATOMIC_POSITIONS (crystal)
Li               0.0000000000       -0.0000000000        0.0000000000
Li               0.5000000000        0.5000000000        0.5000000000



     Writing config-only to output data dir ./tmp/Li_BCC.save/ :
     XML data file
     NEW-OLD atomic charge density approx. for the potential

     total cpu time spent up to now is        1.8 secs

     Self-consistent Calculation

     iteration #  1     ecut=    30.00 Ry     beta= 0.70
     Davidson diagonalization with overlap
     ethr =  1.00E-06,  avg # of iterations =  5.1

     total cpu time spent up to now is        2.1 secs

     total energy              =     -29.88621268 Ry
     estimated scf accuracy    <       0.00022994 Ry

     iteration #  2     ecut=    30.00 Ry     beta= 0.70
     Davidson diagonalization with overlap
     ethr =  3.83E-06,  avg # of iterations =  1.0

     total cpu time spent up to now is        2.2 secs

     total energy              =     -29.88618524 Ry
     estimated scf accuracy    <       0.00001797 Ry

     iteration #  3     ecut=    30.00 Ry     beta= 0.70
     Davidson diagonalization with overlap
     ethr =  2.99E-07,  avg # of iterations =  1.0

     total cpu time spent up to now is        2.3 secs

     total energy              =     -29.88618581 Ry
     estimated scf accuracy    <       0.00000005 Ry

     iteration #  4     ecut=    30.00 Ry     beta= 0.70
     Davidson diagonalization with overlap
     ethr =  7.86E-10,  avg # of iterations =  2.1

     total cpu time spent up to now is        2.4 secs

     total energy              =     -29.88618587 Ry
     estimated scf accuracy    <          5.0E-10 Ry

     iteration #  5     ecut=    30.00 Ry     beta= 0.70
     Davidson diagonalization with overlap
     ethr =  8.26E-12,  avg # of iterations =  2.1

     total cpu time spent up to now is        2.5 secs

     End of self-consistent calculation

          k = 0.0000 0.0000 0.0000 (  1409 PWs)   bands (ev):

   -49.0824 -48.9404  -3.0107   2.3972   5.0440   5.0440   6.6381

          k =-0.0082-0.1717 0.1717 (  1400 PWs)   bands (ev):

   -49.0551 -48.9542  -2.7547   2.1573   4.6311   4.8133   4.9666

          k =-0.0163-0.3434 0.3434 (  1376 PWs)   bands (ev):

   -49.0093 -48.9693  -1.9949   0.8712   3.8382   4.3955   4.7210

          k = 0.0245 0.5151-0.5151 (  1376 PWs)   bands (ev):

   -48.9885 -48.9885  -0.7513  -0.7513   4.0176   4.0176   4.5924

          k =-0.1880-0.1717 0.3516 (  1389 PWs)   bands (ev):

   -49.0513 -48.9473  -2.2037   1.4881   2.9059   4.0704   4.9170

          k =-0.1472 0.6868-0.5070 (  1389 PWs)   bands (ev):

   -49.0274 -48.9696  -1.1598   0.0371   2.3140   3.7846   4.8621

          k =-0.3271 0.6868-0.3271 (  1385 PWs)   bands (ev):

   -49.0218 -48.9670  -0.2453  -0.0652   0.6872   3.5030   5.6961

          k =-0.0082 0.0082 0.3516 (  1385 PWs)   bands (ev):

   -49.0458 -48.9467  -2.4772   2.0679   3.9497   4.1061   4.1320

          k =-0.0163-0.1635 0.5233 (  1389 PWs)   bands (ev):

   -49.0248 -48.9685  -1.7176   1.1304   2.8820   3.3663   4.6383

          k = 0.0245 0.6950-0.3352 (  1382 PWs)   bands (ev):

   -48.9904 -48.9904  -0.4680  -0.4680   2.9280   2.9280   5.5000

          k =-0.1472 0.8667-0.3271 (  1384 PWs)   bands (ev):

   -49.0240 -48.9659  -0.6278   0.5829   1.2502   3.8608   4.0923

          k = 0.6787-0.6787 0.3189 (  1394 PWs)   bands (ev):

   -49.0505 -48.9519  -1.3857   0.8129   1.9171   2.2717   6.0845

          k = 0.5070-0.5070 0.3271 (  1390 PWs)   bands (ev):

   -49.0307 -48.9623  -0.5238  -0.0577   1.5675   1.9344   6.7772

          k =-0.0163 0.0163 0.7032 (  1393 PWs)   bands (ev):

   -49.0320 -48.9703  -0.8804   1.6732   2.3273   2.5146   2.6019

          k = 0.0245 0.8749-0.1554 (  1374 PWs)   bands (ev):

   -48.9884 -48.9884   0.3871   0.3871   2.0976   2.0976   3.7674

          k = 0.0245-0.0245-1.0548 (  1368 PWs)   bands (ev):

   -48.9840 -48.9840   1.8095   1.8095   1.8095   1.8266   1.8266

          k =-0.0000 0.1799 0.1799 (  1400 PWs)   bands (ev):

   -49.0685 -48.9440  -2.7337   2.1713   3.8276   4.4786   6.1522

          k =-0.0000 0.3598 0.3598 (  1376 PWs)   bands (ev):

   -49.0545 -48.9255  -1.9225   1.6395   1.7638   3.7401   5.7430

          k =-0.0000-0.5396-0.5396 (  1376 PWs)   bands (ev):

   -49.0467 -48.9336  -0.9751   0.1608   1.5805   3.4608   5.6254

          k =-0.1635 0.1635-0.3434 (  1389 PWs)   bands (ev):

   -49.0185 -48.9724  -2.2774   1.9241   2.6548   4.2085   5.3372

          k =-0.1799-0.3598-0.1799 (  1389 PWs)   bands (ev):

   -49.0531 -48.9477  -2.1855   1.8542   2.8141   2.9227   6.3078

          k =-0.2044-0.6950 0.5151 (  1389 PWs)   bands (ev):

   -48.9992 -48.9914  -1.3249   0.3893   2.1020   3.7649   5.2047

          k =-0.1717-0.5478-0.7113 (  1389 PWs)   bands (ev):

   -49.0504 -48.9444  -1.1569   0.8358   1.0240   3.5305   5.5032

          k =-0.1799 0.5396 0.7195 (  1389 PWs)   bands (ev):

   -49.0553 -48.9419  -1.1431   0.8039   1.5643   2.3618   6.0267

          k =-0.3598 0.3598 0.7195 (  1385 PWs)   bands (ev):

   -49.0481 -48.9416   0.0136   0.0136   1.2736   1.4608   6.8420

          k = 0.0082 0.5315 0.1880 (  1389 PWs)   bands (ev):

   -49.0480 -48.9524  -1.6598   1.7445   1.8602   3.2702   4.2756

          k = 0.0082-0.3679-0.7113 (  1382 PWs)   bands (ev):

   -49.0457 -48.9457  -0.6646   0.3311   1.5639   2.9974   4.7442

          k =-0.2044-0.8749 0.3352 (  1384 PWs)   bands (ev):

   -48.9955 -48.9876  -0.7534   0.8226   1.1100   4.0167   4.5963

          k =-0.1880 0.3679 0.8912 (  1384 PWs)   bands (ev):

   -49.0384 -48.9569  -0.5969   0.9698   1.6626   1.9487   4.4379

          k = 0.6950 0.3843 0.6950 (  1394 PWs)   bands (ev):

   -49.0086 -48.9896  -1.6099   1.8083   1.8083   1.8404   6.7761

          k = 0.5478 0.5315-0.3516 (  1390 PWs)   bands (ev):

   -49.0477 -48.9465  -0.3340   0.4452   0.5669   1.9074   6.6538

          k = 0.0163-0.1962-0.8830 (  1374 PWs)   bands (ev):

   -49.0161 -48.9616   0.2655   0.8717   1.5979   2.3007   3.1692

     the Fermi energy is    -0.0894 ev

!    total energy              =     -29.88618588 Ry
     total all-electron energy =       -29.886209 Ry
     estimated scf accuracy    <          1.1E-11 Ry
     smearing contrib. (-TS)   =      -0.00054269 Ry
     internal energy E=F+TS    =     -29.88564319 Ry

     The total energy is F=E-TS. E is the sum of the following terms:
     one-electron contribution =     -24.17174580 Ry
     hartree contribution      =       9.00951077 Ry
     xc contribution           =      -6.96957848 Ry
     ewald contribution        =      -7.90421301 Ry
     one-center paw contrib.   =       0.15038333 Ry

     convergence has been achieved in   5 iterations

     Forces acting on atoms (cartesian axes, Ry/au):

     atom    1 type  1   force =     0.00000000   -0.00000000   -0.00000000
     atom    2 type  1   force =     0.00000000    0.00000000    0.00000000

     Total force =     0.000000     Total SCF correction =     0.000000


     Computing stress (Cartesian axis) and pressure

          total   stress  (Ry/bohr**3)                   (kbar)     P=     -105.69
  -0.00071848  -0.00032170   0.00032170         -105.69      -47.32       47.32
  -0.00032170  -0.00071848  -0.00032170          -47.32     -105.69      -47.32
   0.00032170  -0.00032170  -0.00071848           47.32      -47.32     -105.69

     Energy error            =      4.5E-02 Ry
     Gradient error          =      1.1E-30 Ry/Bohr
     Cell gradient error     =      1.1E+02 kbar

     number of scf cycles    =   3
     number of bfgs steps    =   2

     enthalpy           old  =     -29.8409242972 Ry
     enthalpy           new  =     -29.8861858761 Ry

     CASE: enthalpy          _new < enthalpy          _old

     new trust radius        =       0.2409780454 bohr
     new conv_thr            =            1.0E-10 Ry

     new unit-cell volume =    366.31528 a.u.^3 (    54.28232 Ang^3 )
     density =      0.42460 g/cm^3

CELL_PARAMETERS (alat= 10.00000000)
   0.451740159   0.408709657   0.451740159
  -0.451740159   0.451740159   0.408709657
  -0.408709657  -0.451740159   0.451740159

ATOMIC_POSITIONS (crystal)
Li               0.0000000000       -0.0000000000        0.0000000000
Li               0.5000000000        0.5000000000        0.5000000000



     Writing config-only to output data dir ./tmp/Li_BCC.save/ :
     XML data file
     NEW-OLD atomic charge density approx. for the potential

     total cpu time spent up to now is        2.6 secs

     Self-consistent Calculation

     iteration #  1     ecut=    30.00 Ry     beta= 0.70
     Davidson diagonalization with overlap
     ethr =  1.00E-06,  avg # of iterations =  5.8

     total cpu time spent up to now is        2.9 secs

     total energy              =     -29.94316199 Ry
     estimated scf accuracy    <       0.00039051 Ry

     iteration #  2     ecut=    30.00 Ry     beta= 0.70
     Davidson diagonalization with overlap
     ethr =  6.51E-06,  avg # of iterations =  1.0

     total cpu time spent up to now is        3.0 secs

     total energy              =     -29.94309685 Ry
     estimated scf accuracy    <       0.00003173 Ry

     iteration #  3     ecut=    30.00 Ry     beta= 0.70
     Davidson diagonalization with overlap
     ethr =  5.29E-07,  avg # of iterations =  1.0

     total cpu time spent up to now is        3.1 secs

     total energy              =     -29.94309746 Ry
     estimated scf accuracy    <       0.00000004 Ry

     iteration #  4     ecut=    30.00 Ry     beta= 0.70
     Davidson diagonalization with overlap
     ethr =  6.53E-10,  avg # of iterations =  2.0

     total cpu time spent up to now is        3.2 secs

     total energy              =     -29.94309752 Ry
     estimated scf accuracy    <          4.1E-10 Ry

     iteration #  5     ecut=    30.00 Ry     beta= 0.70
     Davidson diagonalization with overlap
     ethr =  6.82E-12,  avg # of iterations =  2.1

     total cpu time spent up to now is        3.3 secs

     End of self-consistent calculation

          k = 0.0000 0.0000 0.0000 (  1409 PWs)   bands (ev):

   -48.2474 -48.1042  -2.8745   3.2546   6.7143   6.7143   7.1382

          k =-0.0168-0.1769 0.1769 (  1400 PWs)   bands (ev):

   -48.2229 -48.1186  -2.6066   2.9292   5.1621   6.3876   6.5354

          k =-0.0337-0.3537 0.3537 (  1376 PWs)   bands (ev):

   -48.1837 -48.1354  -1.8089   1.2946   4.7433   5.7876   6.0181

          k = 0.0505 0.5306-0.5306 (  1376 PWs)   bands (ev):

   -48.1578 -48.1578  -0.4887  -0.4887   5.1926   5.1926   5.6204

          k =-0.2105-0.1769 0.3705 (  1389 PWs)   bands (ev):

   -48.2215 -48.1152  -1.9892   1.9707   4.0439   5.4252   5.6042

          k =-0.1263 0.7074-0.5137 (  1389 PWs)   bands (ev):

   -48.1956 -48.1392  -0.8718   0.3089   3.2515   4.9670   5.8866

          k =-0.3200 0.7074-0.3200 (  1385 PWs)   bands (ev):

   -48.1907 -48.1367  -0.0203   0.2644   1.4710   4.6421   6.8577

          k =-0.0168 0.0168 0.3705 (  1385 PWs)   bands (ev):

   -48.2176 -48.1132  -2.2956   2.8230   4.4741   5.3688   5.4262

          k =-0.0337-0.1600 0.5474 (  1389 PWs)   bands (ev):

   -48.1921 -48.1355  -1.4966   1.6077   3.5313   4.4989   5.9837

          k = 0.0505 0.7243-0.3369 (  1382 PWs)   bands (ev):

   -48.1577 -48.1577  -0.1698  -0.1698   3.8352   3.8352   6.8311

          k =-0.1263 0.9011-0.3200 (  1384 PWs)   bands (ev):

   -48.1937 -48.1338  -0.2959   0.9454   2.0502   4.6968   5.3330

          k = 0.6906-0.6906 0.3032 (  1394 PWs)   bands (ev):

   -48.2202 -48.1186  -1.0748   1.1148   2.7090   3.4728   7.0255

          k = 0.5137-0.5137 0.3200 (  1390 PWs)   bands (ev):

   -48.1973 -48.1321  -0.3414   0.3543   2.1865   3.0363   8.0715

          k =-0.0337 0.0337 0.7411 (  1393 PWs)   bands (ev):

   -48.1992 -48.1366  -0.5573   2.4245   2.6792   3.3123   3.7531

          k = 0.0505 0.9179-0.1432 (  1374 PWs)   bands (ev):

   -48.1577 -48.1577   0.7924   0.7924   2.8704   2.8704   4.7447

          k = 0.0505-0.0505-1.1116 (  1368 PWs)   bands (ev):

   -48.1552 -48.1552   2.3022   2.3022   2.3022   2.8465   2.8468

          k =-0.0000 0.1937 0.1937 (  1400 PWs)   bands (ev):

   -48.2371 -48.1095  -2.5642   2.8950   5.1965   5.9775   6.5551

          k =-0.0000 0.3874 0.3874 (  1376 PWs)   bands (ev):

   -48.2259 -48.0972  -1.6608   2.2827   2.5897   5.0654   6.0948

          k =-0.0000-0.5811-0.5811 (  1376 PWs)   bands (ev):

   -48.2198 -48.1046  -0.6720   0.9587   2.0213   4.7273   5.9705

          k =-0.1600 0.1600-0.3537 (  1389 PWs)   bands (ev):

   -48.1879 -48.1356  -2.1266   2.7702   3.0632   4.9598   6.8974

          k =-0.1937-0.3874-0.1937 (  1389 PWs)   bands (ev):

   -48.2257 -48.1149  -1.9507   2.4123   3.8294   4.2244   6.8986

          k =-0.2442-0.7243 0.5306 (  1389 PWs)   bands (ev):

   -48.1642 -48.1594  -1.1404   0.7971   2.8825   4.7438   6.5204

          k =-0.1769-0.5979-0.7579 (  1389 PWs)   bands (ev):

   -48.2197 -48.1126  -0.8412   1.3715   1.6500   4.7793   6.2502

          k =-0.1937 0.5811 0.7748 (  1389 PWs)   bands (ev):

   -48.2270 -48.1093  -0.8016   1.5700   1.9937   3.5116   6.4515

          k =-0.3874 0.3874 0.7748 (  1385 PWs)   bands (ev):

   -48.2208 -48.1089   0.4896   0.4896   1.8458   2.4554   7.7471

          k = 0.0168 0.5642 0.2105 (  1389 PWs)   bands (ev):

   -48.2187 -48.1208  -1.3828   2.3172   2.7945   4.4890   4.7330

          k = 0.0168-0.4042-0.7579 (  1382 PWs)   bands (ev):

   -48.2178 -48.1168  -0.3405   1.1080   2.0524   4.1706   5.2823

          k =-0.2442-0.9179 0.3369 (  1384 PWs)   bands (ev):

   -48.1609 -48.1550  -0.4920   1.1423   1.8907   5.1889   5.6277

          k =-0.2105 0.4042 0.9516 (  1384 PWs)   bands (ev):

   -48.2132 -48.1248  -0.2029   1.5837   2.5808   2.8194   4.8651

          k = 0.7243 0.4379 0.7243 (  1394 PWs)   bands (ev):

   -48.1709 -48.1604  -1.4642   2.3003   2.3003   2.8887   8.4381

          k = 0.5979 0.5642-0.3705 (  1390 PWs)   bands (ev):

   -48.2182 -48.1136   0.0474   0.8142   1.1229   3.0114   7.6580

          k = 0.0337-0.2274-0.9348 (  1374 PWs)   bands (ev):

   -48.1889 -48.1304   0.6526   1.5887   2.1936   3.3220   3.8621

     the Fermi energy is     0.2424 ev

!    total energy              =     -29.94309753 Ry
     total all-electron energy =       -29.943120 Ry
     estimated scf accuracy    <          3.2E-12 Ry
     smearing contrib. (-TS)   =      -0.00050689 Ry
     internal energy E=F+TS    =     -29.94259064 Ry

     The total energy is F=E-TS. E is the sum of the following terms:
     one-electron contribution =     -23.27923938 Ry
     hartree contribution      =       8.74059258 Ry
     xc contribution           =      -7.03416746 Ry
     ewald contribution        =      -8.52419236 Ry
     one-center paw contrib.   =       0.15441598 Ry

     convergence has been achieved in   5 iterations

     Forces acting on atoms (cartesian axes, Ry/au):

     atom    1 type  1   force =    -0.00000000    0.00000000    0.00000000
     atom    2 type  1   force =    -0.00000000    0.00000000    0.00000000

     Total force =     0.000000     Total SCF correction =     0.000000


     Computing stress (Cartesian axis) and pressure

          total   stress  (Ry/bohr**3)                   (kbar)     P=      -91.25
  -0.00062030  -0.00027225   0.00027225          -91.25      -40.05       40.05
  -0.00027225  -0.00062030  -0.00027225          -40.05      -91.25      -40.05
   0.00027225  -0.00027225  -0.00062030           40.05      -40.05      -91.25

     Energy error            =      5.7E-02 Ry
     Gradient error          =      2.2E-30 Ry/Bohr
     Cell gradient error     =      9.1E+01 kbar

     number of scf cycles    =   4
     number of bfgs steps    =   3

     enthalpy           old  =     -29.8861858761 Ry
     enthalpy           new  =     -29.9430975288 Ry

     CASE: enthalpy          _new < enthalpy          _old

     new trust radius        =       0.3605504839 bohr
     new conv_thr            =            1.0E-10 Ry

     new unit-cell volume =    284.61885 a.u.^3 (    42.17616 Ang^3 )
     density =      0.54648 g/cm^3

CELL_PARAMETERS (alat= 10.00000000)
   0.417460702   0.343831094   0.417460702
  -0.417460702   0.417460702   0.343831094
  -0.343831094  -0.417460702   0.417460702

ATOMIC_POSITIONS (crystal)
Li              -0.0000000000        0.0000000000       -0.0000000000
Li               0.5000000000        0.5000000000        0.5000000000



     Writing config-only to output data dir ./tmp/Li_BCC.save/ :
     XML data file
     NEW-OLD atomic charge density approx. for the potential

     total cpu time spent up to now is        3.4 secs

     Self-consistent Calculation

     iteration #  1     ecut=    30.00 Ry     beta= 0.70
     Davidson diagonalization with overlap
     ethr =  1.00E-06,  avg # of iterations =  7.1

     total cpu time spent up to now is        3.7 secs

     total energy              =     -30.00414453 Ry
     estimated scf accuracy    <       0.00050014 Ry

     iteration #  2     ecut=    30.00 Ry     beta= 0.70
     Davidson diagonalization with overlap
     ethr =  8.34E-06,  avg # of iterations =  1.0

     total cpu time spent up to now is        3.8 secs

     total energy              =     -30.00399476 Ry
     estimated scf accuracy    <       0.00004588 Ry

     iteration #  3     ecut=    30.00 Ry     beta= 0.70
     Davidson diagonalization with overlap
     ethr =  7.65E-07,  avg # of iterations =  1.0

     total cpu time spent up to now is        3.9 secs

     total energy              =     -30.00399554 Ry
     estimated scf accuracy    <       0.00000002 Ry

     iteration #  4     ecut=    30.00 Ry     beta= 0.70
     Davidson diagonalization with overlap
     ethr =  3.22E-10,  avg # of iterations =  2.3

     total cpu time spent up to now is        4.0 secs

     total energy              =     -30.00399559 Ry
     estimated scf accuracy    <          1.6E-09 Ry

     iteration #  5     ecut=    30.00 Ry     beta= 0.70
     Davidson diagonalization with overlap
     ethr =  2.61E-11,  avg # of iterations =  2.3

     total cpu time spent up to now is        4.1 secs

     End of self-consistent calculation

          k = 0.0000 0.0000 0.0000 (  1409 PWs)   bands (ev):

   -46.7465 -46.6022  -2.5564   4.8912   8.1229   8.1230  10.1095

          k =-0.0328-0.1861 0.1861 (  1400 PWs)   bands (ev):

   -46.7267 -46.6165  -2.2708   4.2713   6.3396   9.5681   9.6889

          k =-0.0656-0.3722 0.3722 (  1376 PWs)   bands (ev):

   -46.6921 -46.6344  -1.4162   2.0329   6.5840   8.5748   8.5922

          k = 0.0985 0.5583-0.5583 (  1376 PWs)   bands (ev):

   -46.6594 -46.6594   0.0197   0.0197   7.5216   7.5216   7.6664

          k =-0.2517-0.1861 0.4050 (  1389 PWs)   bands (ev):

   -46.7257 -46.6169  -1.5363   2.7535   6.2974   7.0150   8.1729

          k =-0.0876 0.7444-0.5255 (  1389 PWs)   bands (ev):

   -46.6959 -46.6422  -0.2980   0.7949   5.0942   7.3794   7.8912

          k =-0.3066 0.7444-0.3066 (  1385 PWs)   bands (ev):

   -46.6918 -46.6406   0.3842   0.9485   2.9863   6.9626   9.0441

          k =-0.0328 0.0328 0.4050 (  1385 PWs)   bands (ev):

   -46.7243 -46.6131  -1.9009   4.1886   5.2168   8.0012   8.2299

          k =-0.0656-0.1533 0.5911 (  1389 PWs)   bands (ev):

   -46.6940 -46.6356  -1.0429   2.4023   4.8969   6.7367   8.7043

          k = 0.0985 0.7772-0.3394 (  1382 PWs)   bands (ev):

   -46.6579 -46.6579   0.3970   0.3970   5.6353   5.6353   9.5047

          k =-0.0876 0.9633-0.3066 (  1384 PWs)   bands (ev):

   -46.6949 -46.6343   0.3533   1.5741   3.6482   6.3074   7.8500

          k = 0.7116-0.7116 0.2737 (  1394 PWs)   bands (ev):

   -46.7229 -46.6199  -0.4462   1.5970   4.3074   5.9092   8.9096

          k = 0.5255-0.5255 0.3066 (  1390 PWs)   bands (ev):

   -46.6951 -46.6372  -0.0082   1.1624   3.4432   5.2686  10.5319

          k =-0.0656 0.0656 0.8101 (  1393 PWs)   bands (ev):

   -46.6983 -46.6350   0.0800   3.3985   3.7705   4.9205   6.0644

          k = 0.0985 0.9962-0.1205 (  1374 PWs)   bands (ev):

   -46.6573 -46.6573   1.5385   1.5385   4.3777   4.3777   6.7300

          k = 0.0985-0.0985-1.2151 (  1368 PWs)   bands (ev):

   -46.6566 -46.6566   3.3064   3.3064   3.3064   3.3064   4.7669

          k =-0.0000 0.2189 0.2189 (  1400 PWs)   bands (ev):

   -46.7402 -46.6084  -2.1879   4.1636   7.3596   7.9246   7.9414

          k =-0.0000 0.4379 0.4379 (  1376 PWs)   bands (ev):

   -46.7318 -46.6029  -1.1215   3.0897   4.4881   6.8189   7.7492

          k =-0.0000-0.6568-0.6568 (  1376 PWs)   bands (ev):

   -46.7274 -46.6095  -0.0372   2.5383   2.6723   6.6942   7.2952

          k =-0.1533 0.1533-0.3722 (  1389 PWs)   bands (ev):

   -46.6933 -46.6324  -1.7964   3.8935   4.3251   6.5207  10.0317

          k =-0.2189-0.4379-0.2189 (  1389 PWs)   bands (ev):

   -46.7325 -46.6158  -1.4581   3.2992   5.8629   6.8596   7.2534

          k =-0.3174-0.7772 0.5583 (  1389 PWs)   bands (ev):

   -46.6619 -46.6606  -0.7706   1.5497   4.4200   6.7572   9.1108

          k =-0.1861-0.6896-0.8429 (  1389 PWs)   bands (ev):

   -46.7223 -46.6150  -0.2073   1.9204   3.2785   7.3162   7.5753

          k =-0.2189 0.6568 0.8757 (  1389 PWs)   bands (ev):

   -46.7316 -46.6109  -0.1118   2.6234   3.0706   5.9016   7.2876

          k =-0.4379 0.4379 0.8757 (  1385 PWs)   bands (ev):

   -46.7273 -46.6100   1.4674   1.4674   2.3930   4.8385   8.7544

          k = 0.0328 0.6240 0.2517 (  1389 PWs)   bands (ev):

   -46.7228 -46.6222  -0.8182   3.2322   4.6349   5.6544   6.9931

          k = 0.0328-0.4707-0.8429 (  1382 PWs)   bands (ev):

   -46.7221 -46.6212   0.3352   2.6218   2.8075   6.2580   6.5795

          k =-0.3174-0.9962 0.3394 (  1384 PWs)   bands (ev):

   -46.6582 -46.6557   0.0114   1.8030   3.3856   7.4930   7.6863

          k =-0.2517 0.4707 1.0618 (  1384 PWs)   bands (ev):

   -46.7202 -46.6259   0.5878   2.8335   3.5516   5.1639   5.7264

          k = 0.7772 0.5363 0.7772 (  1394 PWs)   bands (ev):

   -46.6667 -46.6648  -1.1626   3.3019   3.3019   4.9435  11.7719

          k = 0.6896 0.6240-0.4050 (  1390 PWs)   bands (ev):

   -46.7210 -46.6149   0.8372   1.2041   2.4132   5.3173   9.4826

          k = 0.0656-0.2846-1.0290 (  1374 PWs)   bands (ev):

   -46.6932 -46.6321   1.4513   2.9141   3.1563   5.2483   5.4590

     the Fermi energy is     0.8401 ev

!    total energy              =     -30.00399559 Ry
     total all-electron energy =       -30.004018 Ry
     estimated scf accuracy    <          3.7E-11 Ry
     smearing contrib. (-TS)   =      -0.00052614 Ry
     internal energy E=F+TS    =     -30.00346945 Ry

     The total energy is F=E-TS. E is the sum of the following terms:
     one-electron contribution =     -21.76923228 Ry
     hartree contribution      =       8.30079867 Ry
     xc contribution           =      -7.13112919 Ry
     ewald contribution        =      -9.56274767 Ry
     one-center paw contrib.   =       0.15884102 Ry

     convergence has been achieved in   5 iterations

     Forces acting on atoms (cartesian axes, Ry/au):

     atom    1 type  1   force =     0.00000000    0.00000000    0.00000000
     atom    2 type  1   force =    -0.00000000    0.00000000    0.00000000

     Total force =     0.000000     Total SCF correction =     0.000000


     Computing stress (Cartesian axis) and pressure

          total   stress  (Ry/bohr**3)                   (kbar)     P=      -64.07
  -0.00043552  -0.00018278   0.00018278          -64.07      -26.89       26.89
  -0.00018278  -0.00043552  -0.00018278          -26.89      -64.07      -26.89
   0.00018278  -0.00018278  -0.00043552           26.89      -26.89      -64.07

     Energy error            =      6.1E-02 Ry
     Gradient error          =      2.3E-30 Ry/Bohr
     Cell gradient error     =      6.4E+01 kbar

     number of scf cycles    =   5
     number of bfgs steps    =   4

     enthalpy           old  =     -29.9430975288 Ry
     enthalpy           new  =     -30.0039955935 Ry

     CASE: enthalpy          _new < enthalpy          _old

     new trust radius        =       0.5386954432 bohr
     new conv_thr            =            1.0E-10 Ry

     new unit-cell volume =    182.12847 a.u.^3 (    26.98866 Ang^3 )
     density =      0.85400 g/cm^3

CELL_PARAMETERS (alat= 10.00000000)
   0.365978792   0.246584920   0.365978792
  -0.365978792   0.365978792   0.246584920
  -0.246584920  -0.365978792   0.365978792

ATOMIC_POSITIONS (crystal)
Li              -0.0000000000        0.0000000000       -0.0000000000
Li               0.5000000000        0.5000000000        0.5000000000



     Writing config-only to output data dir ./tmp/Li_BCC.save/ :
     XML data file
     NEW-OLD atomic charge density approx. for the potential

     total cpu time spent up to now is        4.2 secs

     Self-consistent Calculation

     iteration #  1     ecut=    30.00 Ry     beta= 0.70
     Davidson diagonalization with overlap
     ethr =  1.00E-06,  avg # of iterations =  9.3

     total cpu time spent up to now is        4.6 secs

     total energy              =     -30.02985193 Ry
     estimated scf accuracy    <       0.00038075 Ry

     iteration #  2     ecut=    30.00 Ry     beta= 0.70
     Davidson diagonalization with overlap
     ethr =  6.35E-06,  avg # of iterations =  1.0

     total cpu time spent up to now is        4.7 secs

     total energy              =     -30.02957974 Ry
     estimated scf accuracy    <       0.00005083 Ry

     iteration #  3     ecut=    30.00 Ry     beta= 0.70
     Davidson diagonalization with overlap
     ethr =  8.47E-07,  avg # of iterations =  2.0

     total cpu time spent up to now is        4.8 secs

     total energy              =     -30.02958373 Ry
     estimated scf accuracy    <       0.00000018 Ry

     iteration #  4     ecut=    30.00 Ry     beta= 0.70
     Davidson diagonalization with overlap
     ethr =  2.98E-09,  avg # of iterations =  2.0

     total cpu time spent up to now is        4.9 secs

     total energy              =     -30.02958371 Ry
     estimated scf accuracy    <          6.1E-09 Ry

     iteration #  5     ecut=    30.00 Ry     beta= 0.70
     Davidson diagonalization with overlap
     ethr =  1.01E-10,  avg # of iterations =  2.1

     total cpu time spent up to now is        5.0 secs

     total energy              =     -30.02958371 Ry
     estimated scf accuracy    <          2.0E-10 Ry

     iteration #  6     ecut=    30.00 Ry     beta= 0.70
     Davidson diagonalization with overlap
     ethr =  3.27E-12,  avg # of iterations =  2.0

     total cpu time spent up to now is        5.1 secs

     End of self-consistent calculation

          k = 0.0000 0.0000 0.0000 (  1409 PWs)   bands (ev):

   -43.9241 -43.7342  -1.4585   8.6944  10.5700  10.5700  12.7008

          k =-0.0669-0.2052 0.2052 (  1400 PWs)   bands (ev):

   -43.9056 -43.7476  -1.1579   6.8583   9.6948  10.6701  13.5309

          k =-0.1339-0.4103 0.4103 (  1376 PWs)   bands (ev):

   -43.8587 -43.7724  -0.2402   3.7332  10.8849  11.3041  14.9229

          k = 0.2008 0.6155-0.6155 (  1376 PWs)   bands (ev):

   -43.8074 -43.8074   1.3616   1.3616  12.7255  12.8625  12.8625

          k =-0.3390-0.2052 0.4772 (  1389 PWs)   bands (ev):

   -43.8832 -43.7605  -0.2128   4.3158  10.1644  11.8300  12.1385

          k =-0.0044 0.8206-0.5485 (  1389 PWs)   bands (ev):

   -43.8363 -43.7944   1.2342   1.9747   9.5927  12.2903  13.2216

          k =-0.2765 0.8206-0.2765 (  1385 PWs)   bands (ev):

   -43.8237 -43.8001   1.3920   2.7704   6.6478  12.5503  12.8791

          k =-0.0669 0.0669 0.4772 (  1385 PWs)   bands (ev):

   -43.8932 -43.7499  -0.6857   6.9736   7.1256  11.5243  14.3928

          k =-0.1339-0.1382 0.6824 (  1389 PWs)   bands (ev):

   -43.8508 -43.7751   0.2420   4.1448   8.1205  12.1500  12.8498

          k = 0.2008 0.8875-0.3434 (  1382 PWs)   bands (ev):

   -43.8032 -43.8032   1.8371   1.8371   9.8836   9.8836  15.0378

          k =-0.0044 1.0927-0.2765 (  1384 PWs)   bands (ev):

   -43.8308 -43.7815   2.0345   2.9740   7.5334   9.4856  13.1896

          k = 0.7537-0.7537 0.2095 (  1394 PWs)   bands (ev):

   -43.8620 -43.7750   1.2388   2.6157   8.3753  11.8593  13.4077

          k = 0.5485-0.5485 0.2765 (  1390 PWs)   bands (ev):

   -43.8212 -43.8047   0.8853   3.2404   6.6697  10.6107  15.9627

          k =-0.1339 0.1339 0.9545 (  1393 PWs)   bands (ev):

   -43.8350 -43.7753   1.7394   5.2764   6.2933   9.0100  11.2986

          k = 0.2008 1.1596-0.0713 (  1374 PWs)   bands (ev):

   -43.7924 -43.7924   3.3567   3.3567   7.7989   7.7989  11.0091

          k = 0.2008-0.2008-1.4317 (  1368 PWs)   bands (ev):

   -43.7889 -43.7889   5.9063   5.9063   5.9063   5.9063   8.2544

          k =-0.0000 0.2721 0.2721 (  1400 PWs)   bands (ev):

   -43.9098 -43.7441  -0.9912   6.6221   9.4218  10.7899  14.6287

          k =-0.0000 0.5442 0.5442 (  1376 PWs)   bands (ev):

   -43.8818 -43.7536   0.3728   4.4478   8.7905   9.2047  14.5111

          k = 0.0000-0.8162-0.8162 (  1376 PWs)   bands (ev):

   -43.8677 -43.7639   1.6740   3.6926   6.4613   8.7377  13.7786

          k =-0.1382 0.1382-0.4103 (  1389 PWs)   bands (ev):

   -43.8705 -43.7635  -0.7357   6.0409   7.7315  10.4070  17.6149

          k =-0.2721-0.5442-0.2721 (  1389 PWs)   bands (ev):

   -43.8885 -43.7589  -0.0466   4.8626   9.1355  10.9804  11.8036

          k =-0.4729-0.8875 0.6155 (  1389 PWs)   bands (ev):

   -43.8254 -43.7902   0.2914   3.4087   8.1110  11.5465  15.0820

          k =-0.2052-0.8832-1.0214 (  1389 PWs)   bands (ev):

   -43.8602 -43.7694   1.4715   2.9981   7.3294  10.0718  13.6410

          k =-0.2721 0.8162 1.0883 (  1389 PWs)   bands (ev):

   -43.8683 -43.7643   1.7126   3.6562   6.8014   9.4093  11.8854

          k =-0.5442 0.5442 1.0883 (  1385 PWs)   bands (ev):

   -43.8609 -43.7660   3.2938   4.0246   4.0246  10.6196  11.4977

          k = 0.0669 0.7493 0.3390 (  1389 PWs)   bands (ev):

   -43.8689 -43.7667   0.7203   4.8310   7.7613   9.1667  12.5373

          k = 0.0669-0.6111-1.0214 (  1382 PWs)   bands (ev):

   -43.8568 -43.7716   2.1451   4.0794   6.3189   8.3568  12.5884

          k =-0.4729-1.1596 0.3434 (  1384 PWs)   bands (ev):

   -43.8061 -43.7898   1.3164   3.5539   6.8010  12.2640  12.8460

          k =-0.3390 0.6111 1.2935 (  1384 PWs)   bands (ev):

   -43.8549 -43.7721   2.6503   4.9447   6.0564   7.9311  10.7372

          k = 0.8875 0.7449 0.8875 (  1394 PWs)   bands (ev):

   -43.8414 -43.7881  -0.2245   5.8889   5.8889   9.7158  19.1456

          k = 0.8832 0.7493-0.4772 (  1390 PWs)   bands (ev):

   -43.8514 -43.7764   2.0477   2.9277   5.6101  11.0274  12.4394

          k = 0.1339-0.4059-1.2265 (  1374 PWs)   bands (ev):

   -43.8257 -43.7763   3.5573   5.1019   6.0839   7.7350  10.3168

     the Fermi energy is     2.3767 ev

!    total energy              =     -30.02958371 Ry
     total all-electron energy =       -30.029606 Ry
     estimated scf accuracy    <          4.1E-12 Ry
     smearing contrib. (-TS)   =      -0.00001965 Ry
     internal energy E=F+TS    =     -30.02956406 Ry

     The total energy is F=E-TS. E is the sum of the following terms:
     one-electron contribution =     -18.98012889 Ry
     hartree contribution      =       7.52766671 Ry
     xc contribution           =      -7.29242168 Ry
     ewald contribution        =     -11.44759396 Ry
     one-center paw contrib.   =       0.16291375 Ry

     convergence has been achieved in   6 iterations

     Forces acting on atoms (cartesian axes, Ry/au):

     atom    1 type  1   force =    -0.00000000    0.00000000    0.00000000
     atom    2 type  1   force =    -0.00000000    0.00000000    0.00000000

     Total force =     0.000000     Total SCF correction =     0.000000


     Computing stress (Cartesian axis) and pressure

          total   stress  (Ry/bohr**3)                   (kbar)     P=       40.87
   0.00027781   0.00010588  -0.00010588           40.87       15.58      -15.58
   0.00010588   0.00027781   0.00010588           15.58       40.87       15.58
  -0.00010588   0.00010588   0.00027781          -15.58       15.58       40.87

     Energy error            =      2.6E-02 Ry
     Gradient error          =      2.6E-30 Ry/Bohr
     Cell gradient error     =      4.1E+01 kbar

     number of scf cycles    =   6
     number of bfgs steps    =   5

     enthalpy           old  =     -30.0039955935 Ry
     enthalpy           new  =     -30.0295837122 Ry

     CASE: enthalpy          _new < enthalpy          _old

     new trust radius        =       0.1769988307 bohr
     new conv_thr            =            1.0E-10 Ry

     new unit-cell volume =    213.38441 a.u.^3 (    31.62031 Ang^3 )
     density =      0.72891 g/cm^3

CELL_PARAMETERS (alat= 10.00000000)
   0.383011470   0.278720187   0.383011470
  -0.383011470   0.383011470   0.278720187
  -0.278720187  -0.383011470   0.383011470

ATOMIC_POSITIONS (crystal)
Li              -0.0000000000        0.0000000000       -0.0000000000
Li               0.5000000000        0.5000000000        0.5000000000



     Writing config-only to output data dir ./tmp/Li_BCC.save/ :
     XML data file
     NEW-OLD atomic charge density approx. for the potential

     total cpu time spent up to now is        5.2 secs

     Self-consistent Calculation

     iteration #  1     ecut=    30.00 Ry     beta= 0.70
     Davidson diagonalization with overlap
     ethr =  1.00E-06,  avg # of iterations =  6.9

     total cpu time spent up to now is        5.5 secs

     total energy              =     -30.03259221 Ry
     estimated scf accuracy    <       0.00002806 Ry

     iteration #  2     ecut=    30.00 Ry     beta= 0.70
     Davidson diagonalization with overlap
     ethr =  4.68E-07,  avg # of iterations =  2.0

     total cpu time spent up to now is        5.6 secs

     total energy              =     -30.03251148 Ry
     estimated scf accuracy    <       0.00000630 Ry

     iteration #  3     ecut=    30.00 Ry     beta= 0.70
     Davidson diagonalization with overlap
     ethr =  1.05E-07,  avg # of iterations =  2.0

     total cpu time spent up to now is        5.7 secs

     total energy              =     -30.03251263 Ry
     estimated scf accuracy    <       0.00000051 Ry

     iteration #  4     ecut=    30.00 Ry     beta= 0.70
     Davidson diagonalization with overlap
     ethr =  8.43E-09,  avg # of iterations =  1.0

     total cpu time spent up to now is        5.8 secs

     total energy              =     -30.03251263 Ry
     estimated scf accuracy    <          2.5E-09 Ry

     iteration #  5     ecut=    30.00 Ry     beta= 0.70
     Davidson diagonalization with overlap
     ethr =  4.14E-11,  avg # of iterations =  2.4

     total cpu time spent up to now is        6.0 secs

     total energy              =     -30.03251263 Ry
     estimated scf accuracy    <          6.6E-10 Ry

     iteration #  6     ecut=    30.00 Ry     beta= 0.70
     Davidson diagonalization with overlap
     ethr =  1.11E-11,  avg # of iterations =  1.0

     total cpu time spent up to now is        6.0 secs

     End of self-consistent calculation

          k = 0.0000 0.0000 0.0000 (  1409 PWs)   bands (ev):

   -44.9372 -44.7777  -1.9557   7.1814   9.5749   9.5749  11.4420

          k =-0.0539-0.1980 0.1980 (  1400 PWs)   bands (ev):

   -44.9202 -44.7911  -1.6565   5.8831   8.3005   9.4437  12.4215

          k =-0.1078-0.3959 0.3959 (  1376 PWs)   bands (ev):

   -44.8816 -44.8114  -0.7528   3.0455   9.2007   9.6998  12.3711

          k = 0.1617 0.5939-0.5939 (  1376 PWs)   bands (ev):

   -44.8400 -44.8400   0.7979   0.7979  10.6845  10.7906  10.7906

          k =-0.3058-0.1980 0.4498 (  1389 PWs)   bands (ev):

   -44.9107 -44.7968  -0.7832   3.7096   8.9811   9.5967  10.9343

          k =-0.0363 0.7918-0.5400 (  1389 PWs)   bands (ev):

   -44.8732 -44.8250   0.5923   1.4876   7.7780  10.6378  10.9180

          k =-0.2881 0.7918-0.2881 (  1385 PWs)   bands (ev):

   -44.8664 -44.8264   0.9712   2.0147   5.1728  10.3558  11.6059

          k =-0.0539 0.0539 0.4498 (  1385 PWs)   bands (ev):

   -44.9144 -44.7901  -1.2182   5.9286   6.3414  10.3841  11.8018

          k =-0.1078-0.1441 0.6478 (  1389 PWs)   bands (ev):

   -44.8786 -44.8134  -0.3072   3.4492   6.8675   9.9840  11.5660

          k = 0.1617 0.8457-0.3420 (  1382 PWs)   bands (ev):

   -44.8375 -44.8375   1.2413   1.2413   8.2124   8.2124  13.2834

          k =-0.0363 1.0437-0.2881 (  1384 PWs)   bands (ev):

   -44.8705 -44.8145   1.3388   2.4183   5.9795   8.3527  11.5370

          k = 0.7379-0.7379 0.2342 (  1394 PWs)   bands (ev):

   -44.9007 -44.8040   0.5342   2.2062   6.7132   9.4870  11.6138

          k = 0.5400-0.5400 0.2881 (  1390 PWs)   bands (ev):

   -44.8664 -44.8267   0.5004   2.3837   5.3476   8.5003  13.8612

          k =-0.1078 0.1078 0.8997 (  1393 PWs)   bands (ev):

   -44.8735 -44.8121   1.0518   4.5015   5.4032   7.3390   9.3220

          k = 0.1617 1.0976-0.0902 (  1374 PWs)   bands (ev):

   -44.8317 -44.8317   2.6169   2.6169   6.4756   6.4756   9.4470

          k = 0.1617-0.1617-1.3495 (  1368 PWs)   bands (ev):

   -44.8302 -44.8302   4.8374   4.8374   4.8374   4.8374   7.0997

          k =-0.0000 0.2519 0.2519 (  1400 PWs)   bands (ev):

   -44.9293 -44.7848  -1.5204   5.7090   8.5732   9.5950  11.9253

          k =-0.0000 0.5037 0.5037 (  1376 PWs)   bands (ev):

   -44.9150 -44.7864  -0.2590   3.9580   7.2945   7.9610  11.7650

          k = 0.0000-0.7556-0.7556 (  1376 PWs)   bands (ev):

   -44.9077 -44.7939   0.9618   3.3323   4.8705   7.8667  11.1436

          k =-0.1441 0.1441-0.3959 (  1389 PWs)   bands (ev):

   -44.8866 -44.8067  -1.2082   5.1579   6.3957   8.8625  14.6050

          k =-0.2519-0.5037-0.2519 (  1389 PWs)   bands (ev):

   -44.9180 -44.7952  -0.6503   4.2860   8.3662   8.8965  10.3014

          k =-0.4136-0.8457 0.5939 (  1389 PWs)   bands (ev):

   -44.8488 -44.8329  -0.1685   2.6467   6.6284   9.6806  12.7718

          k =-0.1980-0.8095-0.9536 (  1389 PWs)   bands (ev):

   -44.8998 -44.7989   0.7730   2.5810   5.6878   9.1291  11.0957

          k =-0.2519 0.7556 1.0075 (  1389 PWs)   bands (ev):

   -44.9091 -44.7943   0.9548   3.2776   5.2836   8.5365   9.4836

          k =-0.5037 0.5037 1.0075 (  1385 PWs)   bands (ev):

   -44.9046 -44.7942   2.9565   2.9706   2.9706   8.3244  10.3805

          k = 0.0539 0.7017 0.3058 (  1389 PWs)   bands (ev):

   -44.9036 -44.8019   0.0733   4.2506   6.9361   7.3335  11.0315

          k = 0.0539-0.5576-0.9536 (  1382 PWs)   bands (ev):

   -44.8984 -44.8037   1.3933   3.6251   4.8268   7.5176  10.1785

          k =-0.4136-1.0976 0.3420 (  1384 PWs)   bands (ev):

   -44.8371 -44.8313   0.7732   2.8284   5.4686  10.5666  10.7468

          k =-0.3058 0.5576 1.2054 (  1384 PWs)   bands (ev):

   -44.8972 -44.8059   1.7981   4.4835   4.7338   7.0268   8.5613

          k = 0.8457 0.6654 0.8457 (  1394 PWs)   bands (ev):

   -44.8589 -44.8344  -0.6420   4.8265   4.8265   7.8408  16.4819

          k = 0.8095 0.7017-0.4498 (  1390 PWs)   bands (ev):

   -44.8957 -44.8012   1.7023   2.0625   4.3065   8.7477  11.3788

          k = 0.1078-0.3597-1.1515 (  1374 PWs)   bands (ev):

   -44.8681 -44.8117   2.6866   4.3588   4.8058   6.8792   8.5013

     the Fermi energy is     1.7506 ev

!    total energy              =     -30.03251263 Ry
     total all-electron energy =       -30.032535 Ry
     estimated scf accuracy    <          3.0E-11 Ry
     smearing contrib. (-TS)   =      -0.00028895 Ry
     internal energy E=F+TS    =     -30.03222368 Ry

     The total energy is F=E-TS. E is the sum of the following terms:
     one-electron contribution =     -19.98882644 Ry
     hartree contribution      =       7.80100952 Ry
     xc contribution           =      -7.23451379 Ry
     ewald contribution        =     -10.77161158 Ry
     one-center paw contrib.   =       0.16171861 Ry

     convergence has been achieved in   6 iterations

     Forces acting on atoms (cartesian axes, Ry/au):

     atom    1 type  1   force =    -0.00000000    0.00000000    0.00000000
     atom    2 type  1   force =    -0.00000000    0.00000000    0.00000000

     Total force =     0.000000     Total SCF correction =     0.000000


     Computing stress (Cartesian axis) and pressure

          total   stress  (Ry/bohr**3)                   (kbar)     P=      -11.77
  -0.00008000  -0.00005004   0.00005004          -11.77       -7.36        7.36
  -0.00005004  -0.00008000  -0.00005004           -7.36      -11.77       -7.36
   0.00005004  -0.00005004  -0.00008000            7.36       -7.36      -11.77

     Energy error            =      2.9E-03 Ry
     Gradient error          =      7.5E-30 Ry/Bohr
     Cell gradient error     =      1.2E+01 kbar

     number of scf cycles    =   7
     number of bfgs steps    =   6

     enthalpy           old  =     -30.0295837122 Ry
     enthalpy           new  =     -30.0325126345 Ry

     CASE: enthalpy          _new < enthalpy          _old

     new trust radius        =       0.0473928127 bohr
     new conv_thr            =            1.0E-10 Ry

     new unit-cell volume =    204.84436 a.u.^3 (    30.35480 Ang^3 )
     density =      0.75930 g/cm^3

CELL_PARAMETERS (alat= 10.00000000)
   0.378513189   0.270075756   0.378513189
  -0.378513189   0.378513189   0.270075756
  -0.270075756  -0.378513189   0.378513189

ATOMIC_POSITIONS (crystal)
Li              -0.0000000000        0.0000000000       -0.0000000000
Li               0.5000000000        0.5000000000        0.5000000000



     Writing config-only to output data dir ./tmp/Li_BCC.save/ :
     XML data file
     NEW-OLD atomic charge density approx. for the potential

     total cpu time spent up to now is        6.2 secs

     Self-consistent Calculation

     iteration #  1     ecut=    30.00 Ry     beta= 0.70
     Davidson diagonalization with overlap
     ethr =  1.00E-06,  avg # of iterations =  5.3

     Threshold (ethr) on eigenvalues was too large:
     Diagonalizing with lowered threshold

     Davidson diagonalization with overlap
     ethr =  3.20E-08,  avg # of iterations =  1.2

     total cpu time spent up to now is        6.5 secs

     total energy              =     -30.03318049 Ry
     estimated scf accuracy    <       0.00000188 Ry

     iteration #  2     ecut=    30.00 Ry     beta= 0.70
     Davidson diagonalization with overlap
     ethr =  3.14E-08,  avg # of iterations =  2.0

     total cpu time spent up to now is        6.6 secs

     total energy              =     -30.03317617 Ry
     estimated scf accuracy    <       0.00000043 Ry

     iteration #  3     ecut=    30.00 Ry     beta= 0.70
     Davidson diagonalization with overlap
     ethr =  7.12E-09,  avg # of iterations =  2.0

     total cpu time spent up to now is        6.7 secs

     total energy              =     -30.03317625 Ry
     estimated scf accuracy    <       0.00000001 Ry

     iteration #  4     ecut=    30.00 Ry     beta= 0.70
     Davidson diagonalization with overlap
     ethr =  2.27E-10,  avg # of iterations =  1.1

     total cpu time spent up to now is        6.8 secs

     End of self-consistent calculation

          k = 0.0000 0.0000 0.0000 (  1409 PWs)   bands (ev):

   -44.6749 -44.5102  -1.8411   7.5525   9.8137   9.8137  11.7446

          k =-0.0572-0.1997 0.1997 (  1400 PWs)   bands (ev):

   -44.6579 -44.5235  -1.5411   6.1248   8.6378   9.7436  12.6830

          k =-0.1144-0.3995 0.3995 (  1376 PWs)   bands (ev):

   -44.6177 -44.5446  -0.6328   3.2113   9.6181  10.0934  12.9988

          k = 0.1717 0.5992-0.5992 (  1376 PWs)   bands (ev):

   -44.5743 -44.5743   0.9319   0.9319  11.1857  11.3083  11.3083

          k =-0.3142-0.1997 0.4567 (  1389 PWs)   bands (ev):

   -44.6458 -44.5307  -0.6482   3.8569   9.2799  10.1450  11.2158

          k =-0.0281 0.7990-0.5420 (  1389 PWs)   bands (ev):

   -44.6065 -44.5598   0.7462   1.6031   8.2230  11.0593  11.4924

          k =-0.2850 0.7990-0.2850 (  1385 PWs)   bands (ev):

   -44.5986 -44.5621   1.0700   2.1977   5.5339  10.9044  11.9394

          k =-0.0572 0.0572 0.4567 (  1385 PWs)   bands (ev):

   -44.6508 -44.5232  -1.0933   6.1909   6.5292  10.6551  12.4373

          k =-0.1144-0.1425 0.6565 (  1389 PWs)   bands (ev):

   -44.6137 -44.5467  -0.1771   3.6179   7.1797  10.5182  11.8844

          k = 0.1717 0.8562-0.3423 (  1382 PWs)   bands (ev):

   -44.5714 -44.5714   1.3842   1.3842   8.6278   8.6278  13.7980

          k =-0.0281 1.0559-0.2850 (  1384 PWs)   bands (ev):

   -44.6032 -44.5488   1.5070   2.5531   6.3624   8.6446  11.9367

          k = 0.7418-0.7418 0.2278 (  1394 PWs)   bands (ev):

   -44.6337 -44.5392   0.7039   2.3027   7.1194  10.0731  12.0525

          k = 0.5420-0.5420 0.2850 (  1390 PWs)   bands (ev):

   -44.5981 -44.5632   0.5890   2.5914   5.6699   9.0232  14.3836

          k =-0.1144 0.1144 0.9134 (  1393 PWs)   bands (ev):

   -44.6064 -44.5456   1.2178   4.6879   5.6336   7.7469   9.8277

          k = 0.1717 1.1132-0.0853 (  1374 PWs)   bands (ev):

   -44.5645 -44.5645   2.7965   2.7965   6.8074   6.8074   9.8499

          k = 0.1717-0.1717-1.3701 (  1368 PWs)   bands (ev):

   -44.5626 -44.5626   5.0967   5.0967   5.0967   5.0967   7.4114

          k =-0.0000 0.2570 0.2570 (  1400 PWs)   bands (ev):

   -44.6659 -44.5178  -1.3968   5.9376   8.7748   9.8796  12.5898

          k =-0.0000 0.5139 0.5139 (  1376 PWs)   bands (ev):

   -44.6491 -44.5210  -0.1076   4.0794   7.7625   8.1557  12.4389

          k = 0.0000-0.7709-0.7709 (  1376 PWs)   bands (ev):

   -44.6405 -44.5290   1.1345   3.4212   5.2593   8.0698  11.7901

          k =-0.1425 0.1425-0.3995 (  1389 PWs)   bands (ev):

   -44.6241 -44.5391  -1.0989   5.3709   6.7245   9.2443  15.3526

          k =-0.2570-0.5139-0.2570 (  1389 PWs)   bands (ev):

   -44.6528 -44.5290  -0.5067   4.4281   8.5493   9.4067  10.6615

          k =-0.4286-0.8562 0.5992 (  1389 PWs)   bands (ev):

   -44.5849 -44.5652  -0.0613   2.8309   6.9915  10.1474  13.3540

          k =-0.1997-0.8281-0.9706 (  1389 PWs)   bands (ev):

   -44.6326 -44.5341   0.9419   2.6813   6.0895   9.3587  11.7238

          k =-0.2570 0.7709 1.0279 (  1389 PWs)   bands (ev):

   -44.6417 -44.5294   1.1384   3.3692   5.6547   8.7439  10.0760

          k =-0.5139 0.5139 1.0279 (  1385 PWs)   bands (ev):

   -44.6367 -44.5296   3.0365   3.2273   3.2273   8.8925  10.6490

          k = 0.0572 0.7137 0.3142 (  1389 PWs)   bands (ev):

   -44.6374 -44.5359   0.2287   4.3955   7.1368   7.7830  11.3864

          k = 0.0572-0.5712-0.9706 (  1382 PWs)   bands (ev):

   -44.6308 -44.5383   1.5756   3.7386   5.1924   7.7174  10.7742

          k =-0.4286-1.1132 0.3423 (  1384 PWs)   bands (ev):

   -44.5716 -44.5637   0.9029   3.0034   5.8000  11.0140  11.2596

          k =-0.3142 0.5712 1.2276 (  1384 PWs)   bands (ev):

   -44.6295 -44.5402   2.0051   4.6008   5.0563   7.2440   9.1063

          k = 0.8562 0.6856 0.8562 (  1394 PWs)   bands (ev):

   -44.5961 -44.5660  -0.5462   5.0844   5.0844   8.3051  17.1938

          k = 0.8281 0.7137-0.4567 (  1390 PWs)   bands (ev):

   -44.6276 -44.5373   1.7823   2.2727   4.6247   9.3106  11.6395

          k = 0.1144-0.3714-1.1704 (  1374 PWs)   bands (ev):

   -44.6003 -44.5455   2.8978   4.5437   5.1191   7.0984   8.9687

     the Fermi energy is     1.8942 ev

!    total energy              =     -30.03317625 Ry
     total all-electron energy =       -30.033199 Ry
     estimated scf accuracy    <          6.2E-12 Ry
     smearing contrib. (-TS)   =      -0.00016551 Ry
     internal energy E=F+TS    =     -30.03301074 Ry

     The total energy is F=E-TS. E is the sum of the following terms:
     one-electron contribution =     -19.73034489 Ry
     hartree contribution      =       7.73023505 Ry
     xc contribution           =      -7.24918604 Ry
     ewald contribution        =     -10.94574603 Ry
     one-center paw contrib.   =       0.16203117 Ry

     convergence has been achieved in   4 iterations

     Forces acting on atoms (cartesian axes, Ry/au):

     atom    1 type  1   force =    -0.00000000    0.00000000    0.00000000
     atom    2 type  1   force =    -0.00000000    0.00000000    0.00000000

     Total force =     0.000000     Total SCF correction =     0.000000


     Computing stress (Cartesian axis) and pressure

          total   stress  (Ry/bohr**3)                   (kbar)     P=       -0.52
  -0.00000356  -0.00002196   0.00002196           -0.52       -3.23        3.23
  -0.00002196  -0.00000356  -0.00002196           -3.23       -0.52       -3.23
   0.00002196  -0.00002196  -0.00000356            3.23       -3.23       -0.52

     Energy error            =      6.6E-04 Ry
     Gradient error          =      7.6E-30 Ry/Bohr
     Cell gradient error     =      3.2E+00 kbar

     number of scf cycles    =   8
     number of bfgs steps    =   7

     enthalpy           old  =     -30.0325126345 Ry
     enthalpy           new  =     -30.0331762517 Ry

     CASE: enthalpy          _new < enthalpy          _old

     new trust radius        =       0.0110326495 bohr
     new conv_thr            =            1.0E-10 Ry

     new unit-cell volume =    202.98162 a.u.^3 (    30.07877 Ang^3 )
     density =      0.76626 g/cm^3

CELL_PARAMETERS (alat= 10.00000000)
   0.377545342   0.267985436   0.377545342
  -0.377545342   0.377545342   0.267985436
  -0.267985436  -0.377545342   0.377545342

ATOMIC_POSITIONS (crystal)
Li              -0.0000000000        0.0000000000       -0.0000000000
Li               0.5000000000        0.5000000000        0.5000000000



     Writing config-only to output data dir ./tmp/Li_BCC.save/ :
     XML data file
     NEW-OLD atomic charge density approx. for the potential

     total cpu time spent up to now is        6.9 secs

     Self-consistent Calculation

     iteration #  1     ecut=    30.00 Ry     beta= 0.70
     Davidson diagonalization with overlap
     ethr =  1.00E-06,  avg # of iterations =  3.1

     Threshold (ethr) on eigenvalues was too large:
     Diagonalizing with lowered threshold

     Davidson diagonalization with overlap
     ethr =  2.17E-09,  avg # of iterations =  3.5

     total cpu time spent up to now is        7.2 secs

     total energy              =     -30.03320199 Ry
     estimated scf accuracy    <       0.00000007 Ry

     iteration #  2     ecut=    30.00 Ry     beta= 0.70
     Davidson diagonalization with overlap
     ethr =  1.13E-09,  avg # of iterations =  2.4

     total cpu time spent up to now is        7.3 secs

     total energy              =     -30.03320179 Ry
     estimated scf accuracy    <       0.00000002 Ry

     iteration #  3     ecut=    30.00 Ry     beta= 0.70
     Davidson diagonalization with overlap
     ethr =  2.99E-10,  avg # of iterations =  2.0

     total cpu time spent up to now is        7.4 secs

     total energy              =     -30.03320179 Ry
     estimated scf accuracy    <          2.2E-09 Ry

     iteration #  4     ecut=    30.00 Ry     beta= 0.70
     Davidson diagonalization with overlap
     ethr =  3.69E-11,  avg # of iterations =  1.0

     total cpu time spent up to now is        7.5 secs

     End of self-consistent calculation

          k = 0.0000 0.0000 0.0000 (  1409 PWs)   bands (ev):

   -44.6150 -44.4495  -1.8142   7.6392   9.8638   9.8638  11.8109

          k =-0.0581-0.2001 0.2001 (  1400 PWs)   bands (ev):

   -44.5979 -44.4628  -1.5142   6.1784   8.7153   9.8099  12.7376

          k =-0.1161-0.4002 0.4002 (  1376 PWs)   bands (ev):

   -44.5574 -44.4839  -0.6052   3.2480   9.7145  10.1846  13.1493

          k = 0.1742 0.6003-0.6003 (  1376 PWs)   bands (ev):

   -44.5137 -44.5137   0.9621   0.9621  11.3045  11.4289  11.4289

          k =-0.3163-0.2001 0.4583 (  1389 PWs)   bands (ev):

   -44.5852 -44.4703  -0.6164   3.8879   9.3449  10.2765  11.2765

          k =-0.0259 0.8005-0.5423 (  1389 PWs)   bands (ev):

   -44.5454 -44.4996   0.7822   1.6277   8.3289  11.1546  11.6282

          k =-0.2841 0.8005-0.2841 (  1385 PWs)   bands (ev):

   -44.5373 -44.5020   1.0906   2.2413   5.6189  11.0338  12.0087

          k =-0.0581 0.0581 0.4583 (  1385 PWs)   bands (ev):

   -44.5905 -44.4625  -1.0641   6.2494   6.5695  10.7125  12.5907

          k =-0.1161-0.1420 0.6584 (  1389 PWs)   bands (ev):

   -44.5532 -44.4860  -0.1471   3.6552   7.2508  10.6454  11.9516

          k = 0.1742 0.8585-0.3422 (  1382 PWs)   bands (ev):

   -44.5107 -44.5107   1.4165   1.4165   8.7247   8.7247  13.9052

          k =-0.0259 1.0586-0.2841 (  1384 PWs)   bands (ev):

   -44.5420 -44.4884   1.5467   2.5821   6.4524   8.7079  12.0271

          k = 0.7424-0.7424 0.2260 (  1394 PWs)   bands (ev):

   -44.5725 -44.4792   0.7444   2.3218   7.2174  10.2117  12.1522

          k = 0.5423-0.5423 0.2841 (  1390 PWs)   bands (ev):

   -44.5366 -44.5034   0.6073   2.6407   5.7470   9.1456  14.5024

          k =-0.1161 0.1161 0.9166 (  1393 PWs)   bands (ev):

   -44.5453 -44.4850   1.2567   4.7298   5.6832   7.8448   9.9444

          k = 0.1742 1.1167-0.0840 (  1374 PWs)   bands (ev):

   -44.5035 -44.5035   2.8378   2.8378   6.8838   6.8838   9.9409

          k = 0.1742-0.1742-1.3749 (  1368 PWs)   bands (ev):

   -44.5015 -44.5015   5.1577   5.1577   5.1577   5.1577   7.4781

          k =-0.0000 0.2582 0.2582 (  1400 PWs)   bands (ev):

   -44.6057 -44.4572  -1.3677   5.9877   8.8162   9.9423  12.7498

          k =-0.0000 0.5164 0.5164 (  1376 PWs)   bands (ev):

   -44.5881 -44.4609  -0.0715   4.1034   7.8745   8.1953  12.6022

          k = 0.0000-0.7746-0.7746 (  1376 PWs)   bands (ev):

   -44.5792 -44.4690   1.1764   3.4372   5.3514   8.1115  11.9467

          k =-0.1420 0.1420-0.4002 (  1389 PWs)   bands (ev):

   -44.5642 -44.4782  -1.0740   5.4192   6.8003   9.3322  15.5308

          k =-0.2582-0.5164-0.2582 (  1389 PWs)   bands (ev):

   -44.5920 -44.4687  -0.4725   4.4571   8.5862   9.5300  10.7422

          k =-0.4324-0.8585 0.6003 (  1389 PWs)   bands (ev):

   -44.5247 -44.5040  -0.0376   2.8735   7.0767  10.2559  13.4899

          k =-0.2001-0.8326-0.9747 (  1389 PWs)   bands (ev):

   -44.5714 -44.4740   0.9824   2.7010   6.1849   9.4056  11.8748

          k =-0.2582 0.7746 1.0327 (  1389 PWs)   bands (ev):

   -44.5803 -44.4694   1.1826   3.3860   5.7438   8.7866  10.2167

          k =-0.5164 0.5164 1.0327 (  1385 PWs)   bands (ev):

   -44.5752 -44.4696   3.0504   3.2895   3.2895   9.0257  10.7066

          k = 0.0581 0.7165 0.3163 (  1389 PWs)   bands (ev):

   -44.5764 -44.4756   0.2655   4.4252   7.1792   7.8906  11.4653

          k = 0.0581-0.5744-0.9747 (  1382 PWs)   bands (ev):

   -44.5695 -44.4782   1.6197   3.7607   5.2790   7.7589  10.9164

          k =-0.4324-1.1167 0.3422 (  1384 PWs)   bands (ev):

   -44.5111 -44.5026   0.9320   3.0440   5.8763  11.1142  11.3818

          k =-0.3163 0.5744 1.2329 (  1384 PWs)   bands (ev):

   -44.5681 -44.4799   2.0548   4.6225   5.1342   7.2915   9.2335

          k = 0.8585 0.6906 0.8585 (  1394 PWs)   bands (ev):

   -44.5363 -44.5047  -0.5253   5.1449   5.1449   8.4133  17.3556

          k = 0.8326 0.7165-0.4583 (  1390 PWs)   bands (ev):

   -44.5661 -44.4774   1.7974   2.3235   4.7010   9.4433  11.6923

          k = 0.1161-0.3743-1.1748 (  1374 PWs)   bands (ev):

   -44.5390 -44.4850   2.9482   4.5841   5.1933   7.1442   9.0757

     the Fermi energy is     1.9267 ev

!    total energy              =     -30.03320179 Ry
     total all-electron energy =       -30.033225 Ry
     estimated scf accuracy    <          4.1E-12 Ry
     smearing contrib. (-TS)   =      -0.00013253 Ry
     internal energy E=F+TS    =     -30.03306926 Ry

     The total energy is F=E-TS. E is the sum of the following terms:
     one-electron contribution =     -19.67088806 Ry
     hartree contribution      =       7.71376189 Ry
     xc contribution           =      -7.25235310 Ry
     ewald contribution        =     -10.98567459 Ry
     one-center paw contrib.   =       0.16208460 Ry

     convergence has been achieved in   4 iterations

     Forces acting on atoms (cartesian axes, Ry/au):

     atom    1 type  1   force =     0.00000000    0.00000000    0.00000000
     atom    2 type  1   force =    -0.00000000    0.00000000    0.00000000

     Total force =     0.000000     Total SCF correction =     0.000000


     Computing stress (Cartesian axis) and pressure

          total   stress  (Ry/bohr**3)                   (kbar)     P=        1.97
   0.00001336  -0.00001149   0.00001149            1.97       -1.69        1.69
  -0.00001149   0.00001336  -0.00001149           -1.69        1.97       -1.69
[...]

          k =-0.1415 0.1415-0.3996 (  1389 PWs)   bands (ev):

   -44.5785 -44.4945  -1.0861   5.3985   6.7782   9.3059  15.5110

          k =-0.2581-0.5162-0.2581 (  1389 PWs)   bands (ev):

   -44.6059 -44.4861  -0.4800   4.4292   8.5450   9.5218  10.7015

          k =-0.4330-0.8575 0.5994 (  1389 PWs)   bands (ev):

   -44.5399 -44.5193  -0.0529   2.8596   7.0583  10.2316  13.4636

          k =-0.1998-0.8326-0.9741 (  1389 PWs)   bands (ev):

   -44.5855 -44.4909   0.9768   2.6762   6.1698   9.3596  11.8620

          k =-0.2581 0.7743 1.0324 (  1389 PWs)   bands (ev):

   -44.5943 -44.4866   1.1779   3.3577   5.7344   8.7439  10.1967

          k =-0.5162 0.5162 1.0324 (  1385 PWs)   bands (ev):

   -44.5892 -44.4869   3.0217   3.2852   3.2852   8.9985  10.6641

          k = 0.0583 0.7160 0.3164 (  1389 PWs)   bands (ev):

   -44.5905 -44.4927   0.2581   4.3983   7.1458   7.8786  11.4183

          k = 0.0583-0.5745-0.9741 (  1382 PWs)   bands (ev):

   -44.5836 -44.4953   1.6156   3.7338   5.2641   7.7195  10.9001

          k =-0.4330-1.1156 0.3413 (  1384 PWs)   bands (ev):

   -44.5262 -44.5178   0.9169   3.0315   5.8543  11.0831  11.3640

          k =-0.3164 0.5745 1.2322 (  1384 PWs)   bands (ev):

   -44.5822 -44.4971   2.0491   4.5911   5.1279   7.2614   9.2072

          k = 0.8575 0.6911 0.8575 (  1394 PWs)   bands (ev):

   -44.5516 -44.5201  -0.5408   5.1309   5.1309   8.3882  17.3190

          k = 0.8326 0.7160-0.4579 (  1390 PWs)   bands (ev):

   -44.5803 -44.4943   1.7731   2.3189   4.6923   9.4193  11.6394

          k = 0.1166-0.3747-1.1739 (  1374 PWs)   bands (ev):

   -44.5536 -44.5012   2.9404   4.5612   5.1808   7.1116   9.0491

     the Fermi energy is     1.9119 ev

!    total energy              =     -30.03321135 Ry
     total all-electron energy =       -30.033234 Ry
     estimated scf accuracy    <          3.1E-12 Ry
     smearing contrib. (-TS)   =      -0.00011639 Ry
     internal energy E=F+TS    =     -30.03309496 Ry

     The total energy is F=E-TS. E is the sum of the following terms:
     one-electron contribution =     -19.68405428 Ry
     hartree contribution      =       7.71622739 Ry
     xc contribution           =      -7.25055463 Ry
     ewald contribution        =     -10.97669974 Ry
     one-center paw contrib.   =       0.16198632 Ry

     convergence has been achieved in   3 iterations

     Forces acting on atoms (cartesian axes, Ry/au):

     atom    1 type  1   force =     0.00000000    0.00000000    0.00000000
     atom    2 type  1   force =     0.00000000    0.00000000    0.00000000

     Total force =     0.000000     Total SCF correction =     0.000000


     Computing stress (Cartesian axis) and pressure

          total   stress  (Ry/bohr**3)                   (kbar)     P=        0.00
   0.00000001   0.00000002  -0.00000002            0.00        0.00       -0.00
   0.00000002   0.00000001   0.00000002            0.00        0.00        0.00
  -0.00000002   0.00000002   0.00000001           -0.00        0.00        0.00

     Energy error            =      1.2E-06 Ry
     Gradient error          =      0.0E+00 Ry/Bohr
     Cell gradient error     =      2.4E-03 kbar

     bfgs converged in  13 scf cycles and  12 bfgs steps
     (criteria: energy <  1.0E-04 Ry, force <  1.0E-03 Ry/Bohr, cell <  5.0E-01 kbar)

     End of BFGS Geometry Optimization

     Final enthalpy           =     -30.0332113494 Ry

     File ./tmp/Li_BCC.bfgs deleted, as requested
Begin final coordinates
     new unit-cell volume =    203.63702 a.u.^3 (    30.17589 Ang^3 )
     density =      0.76380 g/cm^3

CELL_PARAMETERS (alat= 10.00000000)
   0.378032463   0.267715426   0.378032463
  -0.378032463   0.378032463   0.267715426
  -0.267715426  -0.378032463   0.378032463

ATOMIC_POSITIONS (crystal)
Li              -0.0000000000        0.0000000000       -0.0000000000
Li               0.5000000000        0.5000000000        0.5000000000
End final coordinates



     Writing config-only to output data dir ./tmp/Li_BCC.save/ :
     XML data file

     Final scf calculation at the relaxed structure.
     The G-vectors are recalculated for the final unit cell
     Results may differ from those at the preceding step.

     Parallelization info
     --------------------
     sticks:   dense  smooth     PW     G-vecs:    dense   smooth      PW
     Min         212      84     27                 4467     1132     217
     Max         213      85     28                 4469     1134     218
     Sum         849     339    111                17871     4533     869

     Using Slab Decomposition



     bravais-lattice index     =            3
     lattice parameter (alat)  =      10.0000  a.u.
     unit-cell volume          =     203.6370 (a.u.)^3
     number of atoms/cell      =            2
     number of atomic types    =            1
     number of electrons       =         6.00
     number of Kohn-Sham states=            7
     kinetic-energy cutoff     =      30.0000  Ry
     charge density cutoff     =     300.0000  Ry
     scf convergence threshold =      1.0E-10
     mixing beta               =       0.7000
     number of iterations used =            8  plain     mixing
     press convergence thresh. =      5.0E-01
     Exchange-correlation= SLA  PW   PBX  PBC
                           (   1   4   3   4   0   0   0)

     celldm(1)=  10.000000  celldm(2)=   0.000000  celldm(3)=   0.000000
     celldm(4)=   0.000000  celldm(5)=   0.000000  celldm(6)=   0.000000

     crystal axes: (cart. coord. in units of alat)
               a(1) = (   0.378032   0.267715   0.378032 )  
               a(2) = (  -0.378032   0.378032   0.267715 )  
               a(3) = (  -0.267715  -0.378032   0.378032 )  

     reciprocal axes: (cart. coord. in units 2 pi/alat)
               b(1) = (  1.198769  0.349823  1.198769 )  
               b(2) = ( -1.198769  1.198769  0.349823 )  
               b(3) = ( -0.349823 -1.198769  1.198769 )  


     PseudoPot. # 1 for Li read from file:
     ../pseudopotentials/Li.pbe-s-kjpaw_psl.1.0.0.UPF
     MD5 check sum: d3662511b3860c829f7212fdb89d6128
     Pseudo is Projector augmented-wave, Zval =  3.0
     Generated using &quot;atomic&quot; code by A. Dal Corso  v.6.3
     Shape of augmentation charge: PSQ
     Using radial grid of 1017 points,  4 beta functions with: 
                l(1) =   0
                l(2) =   0
                l(3) =   1
                l(4) =   1
     Q(r) pseudized with 0 coefficients 


     atomic species   valence    mass     pseudopotential
     Li                3.00     6.94000     Li( 1.00)

     12 Sym. Ops., with inversion, found



   Cartesian axes

     site n.     atom                  positions (alat units)
         1        Li     tau(   1) = (  -0.0000000   0.0000000  -0.0000000  )
         2        Li     tau(   2) = (  -0.1338577   0.1338577   0.5118902  )

     number of k points=    32  Gaussian smearing, width (Ry)=  0.0100
                       cart. coord. in units 2pi/alat
        k(    1) = (   0.0000000   0.0000000   0.0000000), wk =   0.0092593
        k(    2) = (  -0.0583039  -0.1997948   0.1997948), wk =   0.0555556
        k(    3) = (  -0.1166078  -0.3995895   0.3995895), wk =   0.0555556
        k(    4) = (   0.1749117   0.5993843  -0.5993843), wk =   0.0277778
        k(    5) = (  -0.3164026  -0.1997948   0.4578934), wk =   0.1111111
        k(    6) = (  -0.0248831   0.7991791  -0.5410804), wk =   0.1111111
        k(    7) = (  -0.2829817   0.7991791  -0.2829817), wk =   0.0555556
        k(    8) = (  -0.0583039   0.0583039   0.4578934), wk =   0.0555556
        k(    9) = (  -0.1166078  -0.1414909   0.6576882), wk =   0.1111111
        k(   10) = (   0.1749117   0.8574830  -0.3412856), wk =   0.0555556
        k(   11) = (  -0.0248831   1.0572777  -0.2829817), wk =   0.1111111
        k(   12) = (   0.7408752  -0.7408752   0.2246778), wk =   0.0555556
        k(   13) = (   0.5410804  -0.5410804   0.2829817), wk =   0.0555556
        k(   14) = (  -0.1166078   0.1166078   0.9157869), wk =   0.0555556
        k(   15) = (   0.1749117   1.1155816  -0.0831870), wk =   0.0555556
        k(   16) = (   0.1749117  -0.1749117  -1.3736803), wk =   0.0092593
        k(   17) = (  -0.0000000   0.2580987   0.2580987), wk =   0.0555556
        k(   18) = (  -0.0000000   0.5161973   0.5161973), wk =   0.0555556
        k(   19) = (   0.0000000  -0.7742960  -0.7742960), wk =   0.0277778
        k(   20) = (  -0.1414909   0.1414909  -0.3995895), wk =   0.0555556
        k(   21) = (  -0.2580987  -0.5161973  -0.2580987), wk =   0.0555556
        k(   22) = (  -0.4330104  -0.8574830   0.5993843), wk =   0.1111111
        k(   23) = (  -0.1997948  -0.8325999  -0.9740908), wk =   0.1111111
        k(   24) = (  -0.2580987   0.7742960   1.0323947), wk =   0.1111111
        k(   25) = (  -0.5161973   0.5161973   1.0323947), wk =   0.0185185
        k(   26) = (   0.0583039   0.7159921   0.3164026), wk =   0.1111111
        k(   27) = (   0.0583039  -0.5745012  -0.9740908), wk =   0.0555556
        k(   28) = (  -0.4330104  -1.1155816   0.3412856), wk =   0.0555556
        k(   29) = (  -0.3164026   0.5745012   1.2321894), wk =   0.0555556
        k(   30) = (   0.8574830   0.6911090   0.8574830), wk =   0.0185185
        k(   31) = (   0.8325999   0.7159921  -0.4578934), wk =   0.0555556
        k(   32) = (   0.1166078  -0.3747065  -1.1738855), wk =   0.0555556

     Dense  grid:    17871 G-vectors     FFT dimensions: (  36,  36,  36)

     Smooth grid:     4533 G-vectors     FFT dimensions: (  24,  24,  24)

     Estimated max dynamical RAM per process >       7.45 MB

     Estimated total dynamical RAM >      29.81 MB

     Initial potential from superposition of free atoms

     starting charge       5.9908, renormalised to       6.0000
     Starting wfcs are   10 randomized atomic wfcs
     Checking if some PAW data can be deallocated... 

     total cpu time spent up to now is       10.0 secs

     Self-consistent Calculation

     iteration #  1     ecut=    30.00 Ry     beta= 0.70
     Davidson diagonalization with overlap
     c_bands:  1 eigenvalues not converged
     c_bands:  1 eigenvalues not converged
     ethr =  1.00E-06,  avg # of iterations = 10.2

     total cpu time spent up to now is       10.2 secs

     total energy              =     -29.91202005 Ry
     estimated scf accuracy    <       0.01403333 Ry

     iteration #  2     ecut=    30.00 Ry     beta= 0.70
     Davidson diagonalization with overlap
     ethr =  2.34E-04,  avg # of iterations =  1.0

     total cpu time spent up to now is       10.3 secs

     total energy              =     -29.91265627 Ry
     estimated scf accuracy    <       0.00056136 Ry

     iteration #  3     ecut=    30.00 Ry     beta= 0.70
     Davidson diagonalization with overlap
     ethr =  9.36E-06,  avg # of iterations =  2.0

     total cpu time spent up to now is       10.3 secs

     total energy              =     -29.91273450 Ry
     estimated scf accuracy    <       0.00000339 Ry

     iteration #  4     ecut=    30.00 Ry     beta= 0.70
     Davidson diagonalization with overlap
     ethr =  5.65E-08,  avg # of iterations =  1.0

     total cpu time spent up to now is       10.4 secs

     total energy              =     -29.91273463 Ry
     estimated scf accuracy    <       0.00000004 Ry

     iteration #  5     ecut=    30.00 Ry     beta= 0.70
     Davidson diagonalization with overlap
     ethr =  6.56E-10,  avg # of iterations =  2.0

     total cpu time spent up to now is       10.5 secs

     total energy              =     -29.91273464 Ry
     estimated scf accuracy    <          1.4E-10 Ry

     iteration #  6     ecut=    30.00 Ry     beta= 0.70
     Davidson diagonalization with overlap
     ethr =  2.38E-12,  avg # of iterations =  2.0

     total cpu time spent up to now is       10.5 secs

     End of self-consistent calculation

          k = 0.0000 0.0000 0.0000 (   575 PWs)   bands (ev):

   -45.1360 -44.9526  -1.6673   7.5710   9.7922   9.7922  11.7693

          k =-0.0583-0.1998 0.1998 (   562 PWs)   bands (ev):

   -45.1115 -44.9170  -1.3794   6.1513   8.6528   9.7512  12.6814

          k =-0.1166-0.3996 0.3996 (   564 PWs)   bands (ev):

   -45.0881 -44.9438  -0.5068   3.2720   9.6666  10.1375  13.1059

          k = 0.1749 0.5994-0.5994 (   556 PWs)   bands (ev):

   -44.9987 -44.9987   1.0296   1.0296  11.2630  11.2630  11.4057

          k =-0.3164-0.1998 0.4579 (   571 PWs)   bands (ev):

   -45.1167 -44.9465  -0.5231   3.8799   9.2978  10.3090  11.2215

          k =-0.0249 0.7992-0.5411 (   563 PWs)   bands (ev):

   -45.0685 -44.9590   0.8366   1.6819   8.3605  11.0877  11.6349

          k =-0.2830 0.7992-0.2830 (   563 PWs)   bands (ev):

   -45.0340 -44.9930   1.1485   2.2199   5.7362  11.0481  11.9666

          k =-0.0583 0.0583 0.4579 (   560 PWs)   bands (ev):

   -45.0789 -44.9383  -0.9419   6.2028   6.5235  10.7234  12.5541

          k =-0.1166-0.1415 0.6577 (   562 PWs)   bands (ev):

   -45.0582 -44.9682  -0.0589   3.6561   7.2305  10.6606  11.9425

          k = 0.1749 0.8575-0.3413 (   564 PWs)   bands (ev):

   -45.0173 -45.0173   1.4626   1.4626   8.7310   8.7310  13.8490

          k =-0.0249 1.0573-0.2830 (   565 PWs)   bands (ev):

   -45.0477 -44.9918   1.5607   2.5994   6.5478   8.6473  12.0366

          k = 0.7409-0.7409 0.2247 (   568 PWs)   bands (ev):

   -45.0758 -44.9681   0.7922   2.3403   7.1928  10.4037  11.3585

          k = 0.5411-0.5411 0.2830 (   565 PWs)   bands (ev):

   -45.0479 -44.9847   0.6801   2.6434   5.7213   9.3247  14.4615

          k =-0.1166 0.1166 0.9158 (   569 PWs)   bands (ev):

   -45.0624 -44.9968   1.2969   4.6947   5.6628   7.8168  10.0294

          k = 0.1749 1.1156-0.0832 (   564 PWs)   bands (ev):

   -45.0211 -45.0211   2.8418   2.8418   6.8905   6.8905   9.8954

          k = 0.1749-0.1749-1.3737 (   550 PWs)   bands (ev):

   -44.9922 -44.9922   5.1291   5.1291   5.1291   5.1291   7.4958

          k =-0.0000 0.2581 0.2581 (   562 PWs)   bands (ev):

   -45.1026 -44.9253  -1.2350   5.9296   8.7922   9.8726  12.7661

          k =-0.0000 0.5162 0.5162 (   566 PWs)   bands (ev):

   -45.0749 -44.9628  -0.0001   4.0487   7.9704   8.2411  11.6928

          k = 0.0000-0.7743-0.7743 (   580 PWs)   bands (ev):

   -45.1415 -44.9550   1.1593   3.3840   5.5079   8.2083  11.8976

          k =-0.1415 0.1415-0.3996 (   561 PWs)   bands (ev):

   -45.0526 -44.9680  -0.9482   5.3830   6.8168   9.2871  15.4847

          k =-0.2581-0.5162-0.2581 (   565 PWs)   bands (ev):

   -45.1093 -44.9267  -0.3839   4.4171   8.5278   9.5022  10.7952

          k =-0.4330-0.8575 0.5994 (   563 PWs)   bands (ev):

   -45.0262 -45.0010   0.0529   2.8815   7.1060  10.2411  13.4313

          k =-0.1998-0.8326-0.9741 (   567 PWs)   bands (ev):

   -45.0702 -44.9707   1.0012   2.6987   6.3114   9.4259  11.8628

          k =-0.2581 0.7743 1.0324 (   568 PWs)   bands (ev):

   -45.0721 -44.9734   1.1992   3.3531   5.7869   8.7861  10.4035

          k =-0.5162 0.5162 1.0324 (   563 PWs)   bands (ev):

   -45.0865 -44.9465   3.0348   3.2706   3.2706   9.3393  10.6463

          k = 0.0583 0.7160 0.3164 (   569 PWs)   bands (ev):

   -45.0899 -44.9641   0.3266   4.3817   7.1410   7.9300  11.5650

          k = 0.0583-0.5745-0.9741 (   566 PWs)   bands (ev):

   -45.0915 -44.9489   1.6015   3.7179   5.3993   7.7743  10.9834

          k =-0.4330-1.1156 0.3413 (   568 PWs)   bands (ev):

   -45.0285 -45.0257   0.9883   3.0170   5.9558  11.0630  11.3431

          k =-0.3164 0.5745 1.2322 (   565 PWs)   bands (ev):

   -45.0724 -44.9650   2.0598   4.5642   5.1127   7.2456   9.4735

          k = 0.8575 0.6911 0.8575 (   560 PWs)   bands (ev):

   -45.0182 -44.9950  -0.4157   5.1156   5.1156   8.5308  16.9343

          k = 0.8326 0.7160-0.4579 (   560 PWs)   bands (ev):

   -45.0628 -44.9508   1.8266   2.3048   4.7256   9.6841  11.6793

          k = 0.1166-0.3747-1.1739 (   564 PWs)   bands (ev):

   -45.0558 -44.9837   2.9261   4.5617   5.2161   7.0848   8.1979

     the Fermi energy is     1.9443 ev

!    total energy              =     -29.91273464 Ry
     total all-electron energy =       -29.912757 Ry
     estimated scf accuracy    <          1.5E-12 Ry
     smearing contrib. (-TS)   =      -0.00016110 Ry
     internal energy E=F+TS    =     -29.91257354 Ry

     The total energy is F=E-TS. E is the sum of the following terms:
     one-electron contribution =     -19.42186572 Ry
     hartree contribution      =       7.45872847 Ry
     xc contribution           =      -7.11879365 Ry
     ewald contribution        =     -10.97669974 Ry
     one-center paw contrib.   =       0.14605711 Ry

     convergence has been achieved in   6 iterations

     Forces acting on atoms (cartesian axes, Ry/au):

     atom    1 type  1   force =     0.00000000    0.00000000    0.00000000
     atom    2 type  1   force =     0.00000000    0.00000000    0.00000000

     Total force =     0.000000     Total SCF correction =     0.000000


     Computing stress (Cartesian axis) and pressure

          total   stress  (Ry/bohr**3)                   (kbar)     P=     -211.42
  -0.00143718  -0.00035066   0.00035066         -211.42      -51.58       51.58
  -0.00035066  -0.00143718  -0.00035066          -51.58     -211.42      -51.58
   0.00035066  -0.00035066  -0.00143718           51.58      -51.58     -211.42


     Writing all to output data dir ./tmp/Li_BCC.save/ :
     XML data file, charge density, pseudopotentials, collected wavefunctions

     init_run     :      0.23s CPU      0.26s WALL (       2 calls)
     electrons    :      8.02s CPU      8.80s WALL (      14 calls)
     update_pot   :      0.18s CPU      0.19s WALL (      12 calls)
     forces       :      0.22s CPU      0.27s WALL (      14 calls)
     stress       :      0.69s CPU      0.74s WALL (      14 calls)

     Called by init_run:
     wfcinit      :      0.07s CPU      0.08s WALL (       2 calls)
     potinit      :      0.04s CPU      0.05s WALL (       2 calls)
     hinit0       :      0.05s CPU      0.06s WALL (       2 calls)

     Called by electrons:
     c_bands      :      5.61s CPU      6.20s WALL (      69 calls)
     sum_band     :      1.25s CPU      1.34s WALL (      69 calls)
     v_of_rho     :      0.46s CPU      0.49s WALL (      76 calls)
     newd         :      0.28s CPU      0.32s WALL (      76 calls)
     PAW_pot      :      0.68s CPU      0.71s WALL (      88 calls)
     mix_rho      :      0.03s CPU      0.04s WALL (      69 calls)

     Called by c_bands:
     init_us_2    :      0.19s CPU      0.19s WALL (    5760 calls)
     cegterg      :      5.43s CPU      6.01s WALL (    2208 calls)

     Called by *egterg:
     cdiaghg      :      0.24s CPU      0.25s WALL (    6699 calls)
     h_psi        :      4.13s CPU      4.39s WALL (    7371 calls)
     s_psi        :      0.13s CPU      0.16s WALL (    7371 calls)
     g_psi        :      0.01s CPU      0.01s WALL (    5099 calls)

     Called by h_psi:
     h_psi:calbec :      0.27s CPU      0.39s WALL (    7371 calls)
     vloc_psi     :      3.69s CPU      3.79s WALL (    7371 calls)
     add_vuspsi   :      0.15s CPU      0.18s WALL (    7371 calls)

     General routines
     calbec       :      0.49s CPU      0.69s WALL (   12203 calls)
     fft          :      0.28s CPU      0.29s WALL (    1091 calls)
     ffts         :      0.01s CPU      0.01s WALL (     145 calls)
     fftw         :      3.16s CPU      3.25s WALL (   98624 calls)
     interpolate  :      0.03s CPU      0.03s WALL (      76 calls)

     Parallel routines

     PWSCF        :      9.59s CPU     10.61s WALL


   This run was terminated on:   7:59:46  21Jan2025            

=------------------------------------------------------------------------------=
   JOB DONE.
=------------------------------------------------------------------------------=
