
     Program PWSCF v.7.3.1 starts on 11Mar2025 at  7:29:37 

     This program is part of the open-source Quantum ESPRESSO suite
     for quantum simulation of materials; please cite
         "P. Giannozzi et al., J. Phys.:Condens. Matter 21 395502 (2009);
         "P. Giannozzi et al., J. Phys.:Condens. Matter 29 465901 (2017);
         "P. Giannozzi et al., J. Chem. Phys. 152 154105 (2020);
          URL http://www.quantum-espresso.org", 
     in publications or presentations arising from this work. More details at
     http://www.quantum-espresso.org/quote

     Parallel version (MPI), running on     1 processors

     MPI processes distributed on     1 nodes
     0 MiB available memory on the printing compute node when the environment starts

     Reading input from Li_preselected_1.in

     Current dimensions of program PWSCF are:
     Max number of different atomic species (ntypx) = 10
     Max number of k-points (npk) =  40000
     Max angular momentum in pseudopotentials (lmaxx) =  4

     Subspace diagonalization in iterative solution of the eigenvalue problem:
     a serial algorithm will be used


     G-vector sticks info
     --------------------
     sticks:   dense  smooth     PW     G-vecs:    dense   smooth      PW
     Sum         293     121     45                 3791      949     251

     Using Slab Decomposition



     bravais-lattice index     =            1
     lattice parameter (alat)  =       3.5106  a.u.
     unit-cell volume          =      43.2672 (a.u.)^3
     number of atoms/cell      =            2
     number of atomic types    =            1
     number of electrons       =         6.00
     number of Kohn-Sham states=            7
     kinetic-energy cutoff     =      30.0000  Ry
     charge density cutoff     =     300.0000  Ry
     scf convergence threshold =      1.0E-08
     mixing beta               =       0.7000
     number of iterations used =            8  plain     mixing
     Exchange-correlation= SLA  PW   PBX  PBC
                           (   1   4   3   4   0   0   0)

     celldm(1)=   3.510639  celldm(2)=   0.000000  celldm(3)=   0.000000
     celldm(4)=   0.000000  celldm(5)=   0.000000  celldm(6)=   0.000000

     crystal axes: (cart. coord. in units of alat)
               a(1) = (   1.000000   0.000000   0.000000 )  
               a(2) = (   0.000000   1.000000   0.000000 )  
               a(3) = (   0.000000   0.000000   1.000000 )  

     reciprocal axes: (cart. coord. in units 2 pi/alat)
               b(1) = (  1.000000  0.000000  0.000000 )  
               b(2) = (  0.000000  1.000000  0.000000 )  
               b(3) = (  0.000000  0.000000  1.000000 )  


     PseudoPot. # 1 for Li read from file:
     ../pseudopotentials/Li.pbe-s-kjpaw_psl.1.0.0.UPF
     MD5 check sum: d3662511b3860c829f7212fdb89d6128
     Pseudo is Projector augmented-wave, Zval =  3.0
     Generated using &quot;atomic&quot; code by A. Dal Corso  v.6.3
     Shape of augmentation charge: PSQ
     Using radial grid of 1017 points,  4 beta functions with: 
                l(1) =   0
                l(2) =   0
                l(3) =   1
                l(4) =   1
     Q(r) pseudized with 0 coefficients 


     atomic species   valence    mass     pseudopotential
     Li                3.00     6.94000     Li( 1.00)

     No symmetry found



   Cartesian axes

     site n.     atom                  positions (alat units)
         1        Li     tau(   1) = (   0.0000000   0.0000000   0.0000000  )
         2        Li     tau(   2) = (   0.5112250   0.4811630   0.5068120  )

     number of k points=    36  Gaussian smearing, width (Ry)=  0.0100
                       cart. coord. in units 2pi/alat
        k(    1) = (   0.0000000   0.0000000   0.0000000), wk =   0.0312500
        k(    2) = (   0.0000000   0.0000000   0.2500000), wk =   0.0625000
        k(    3) = (   0.0000000   0.0000000  -0.5000000), wk =   0.0312500
        k(    4) = (   0.0000000   0.2500000   0.2500000), wk =   0.0625000
        k(    5) = (   0.0000000   0.2500000  -0.5000000), wk =   0.0625000
        k(    6) = (   0.0000000  -0.5000000  -0.5000000), wk =   0.0312500
        k(    7) = (   0.2500000   0.2500000   0.2500000), wk =   0.0625000
        k(    8) = (   0.2500000   0.2500000  -0.5000000), wk =   0.0625000
        k(    9) = (   0.2500000  -0.5000000  -0.5000000), wk =   0.0625000
        k(   10) = (  -0.5000000  -0.5000000  -0.5000000), wk =   0.0312500
        k(   11) = (   0.2500000   0.0000000   0.0000000), wk =   0.0625000
        k(   12) = (   0.0000000   0.2500000   0.0000000), wk =   0.0625000
        k(   13) = (  -0.5000000   0.0000000   0.0000000), wk =   0.0312500
        k(   14) = (   0.0000000  -0.5000000   0.0000000), wk =   0.0312500
        k(   15) = (   0.0000000  -0.2500000   0.2500000), wk =   0.0625000
        k(   16) = (   0.2500000   0.0000000  -0.2500000), wk =   0.0625000
        k(   17) = (  -0.2500000   0.0000000  -0.2500000), wk =   0.0625000
        k(   18) = (   0.2500000  -0.2500000   0.0000000), wk =   0.0625000
        k(   19) = (  -0.2500000  -0.2500000   0.0000000), wk =   0.0625000
        k(   20) = (   0.2500000   0.0000000   0.5000000), wk =   0.0625000
        k(   21) = (  -0.5000000  -0.2500000   0.0000000), wk =   0.0625000
        k(   22) = (   0.0000000  -0.5000000   0.2500000), wk =   0.0625000
        k(   23) = (   0.2500000  -0.5000000   0.0000000), wk =   0.0625000
        k(   24) = (  -0.5000000   0.0000000   0.2500000), wk =   0.0625000
        k(   25) = (  -0.5000000   0.0000000   0.5000000), wk =   0.0312500
        k(   26) = (  -0.5000000   0.5000000   0.0000000), wk =   0.0312500
        k(   27) = (  -0.2500000  -0.2500000   0.2500000), wk =   0.0625000
        k(   28) = (  -0.2500000   0.2500000  -0.2500000), wk =   0.0625000
        k(   29) = (   0.2500000  -0.2500000  -0.2500000), wk =   0.0625000
        k(   30) = (  -0.2500000   0.2500000   0.5000000), wk =   0.0625000
        k(   31) = (  -0.5000000  -0.2500000   0.2500000), wk =   0.0625000
        k(   32) = (   0.5000000  -0.2500000  -0.2500000), wk =   0.0625000
        k(   33) = (  -0.2500000  -0.5000000   0.2500000), wk =   0.0625000
        k(   34) = (  -0.2500000   0.5000000  -0.2500000), wk =   0.0625000
        k(   35) = (  -0.5000000   0.2500000   0.5000000), wk =   0.0625000
        k(   36) = (  -0.5000000   0.5000000   0.2500000), wk =   0.0625000

     Dense  grid:     3791 G-vectors     FFT dimensions: (  20,  20,  20)

     Smooth grid:      949 G-vectors     FFT dimensions: (  15,  15,  15)

     Estimated max dynamical RAM per process >       5.90 MB

     Initial potential from superposition of free atoms

     starting charge       5.9908, renormalised to       6.0000
     Starting wfcs are   10 randomized atomic wfcs
     Checking if some PAW data can be deallocated... 

     total cpu time spent up to now is        0.2 secs

     Self-consistent Calculation

     iteration #  1     ecut=    30.00 Ry     beta= 0.70
     Davidson diagonalization with overlap
     ethr =  1.00E-02,  avg # of iterations =  4.5

     Threshold (ethr) on eigenvalues was too large:
     Diagonalizing with lowered threshold

     Davidson diagonalization with overlap
     ethr =  5.19E-04,  avg # of iterations =  1.6

     total cpu time spent up to now is        0.3 secs

     total energy              =     -28.83476156 Ry
     estimated scf accuracy    <       0.03170303 Ry

     iteration #  2     ecut=    30.00 Ry     beta= 0.70
     Davidson diagonalization with overlap
     ethr =  5.28E-04,  avg # of iterations =  1.0

     total cpu time spent up to now is        0.3 secs

     total energy              =     -28.83669565 Ry
     estimated scf accuracy    <       0.00092643 Ry

     iteration #  3     ecut=    30.00 Ry     beta= 0.70
     Davidson diagonalization with overlap
     ethr =  1.54E-05,  avg # of iterations =  3.4

     total cpu time spent up to now is        0.4 secs

     total energy              =     -28.83686867 Ry
     estimated scf accuracy    <       0.00001152 Ry

     iteration #  4     ecut=    30.00 Ry     beta= 0.70
     Davidson diagonalization with overlap
     ethr =  1.92E-07,  avg # of iterations =  1.5

     total cpu time spent up to now is        0.4 secs

     total energy              =     -28.83686905 Ry
     estimated scf accuracy    <       0.00000055 Ry

     iteration #  5     ecut=    30.00 Ry     beta= 0.70
     Davidson diagonalization with overlap
     ethr =  9.09E-09,  avg # of iterations =  1.0

     total cpu time spent up to now is        0.5 secs

     End of self-consistent calculation

          k = 0.0000 0.0000 0.0000 (   123 PWs)   bands (ev):

   -37.0523 -31.0744  19.4851  32.3643  32.3718  32.4607  37.6882

          k = 0.0000 0.0000 0.2500 (   114 PWs)   bands (ev):

   -36.0404 -31.4882  17.7234  21.4890  35.0654  35.1016  40.4126

          k = 0.0000 0.0000-0.5000 (   118 PWs)   bands (ev):

   -33.7244 -33.5516  16.3067  16.8485  42.8501  42.8601  43.1241

          k = 0.0000 0.2500 0.2500 (   122 PWs)   bands (ev):

   -35.2058 -31.9338  16.0529  18.7021  30.3717  37.6996  46.3757

          k = 0.0000 0.2500-0.5000 (   126 PWs)   bands (ev):

   -33.4082 -33.2794  14.8170  15.1732  35.9515  36.1881  45.3364

          k = 0.0000-0.5000-0.5000 (   112 PWs)   bands (ev):

   -32.8376 -32.8273  13.2171  13.2334  35.0890  35.1538  50.4139

          k = 0.2500 0.2500 0.2500 (   121 PWs)   bands (ev):

   -34.5287 -32.0175  15.4570  21.2876  21.3525  42.6945  42.7785

          k = 0.2500 0.2500-0.5000 (   116 PWs)   bands (ev):

   -32.9746 -32.8861  15.6490  15.9243  29.2668  29.4886  45.0846

          k = 0.2500-0.5000-0.5000 (   120 PWs)   bands (ev):

   -32.6357 -32.6276  15.9123  15.9269  28.1036  28.1430  37.4943

          k =-0.5000-0.5000-0.5000 (   136 PWs)   bands (ev):

   -32.5192 -32.5187  23.6139  23.6966  23.9187  24.1073  24.3287

          k = 0.2500 0.0000 0.0000 (   114 PWs)   bands (ev):

   -36.0410 -31.4874  17.7017  21.5212  35.0582  35.0972  40.4122

          k = 0.0000 0.2500 0.0000 (   114 PWs)   bands (ev):

   -36.0430 -31.4848  17.6389  21.6053  35.0567  35.0705  40.4202

          k =-0.5000 0.0000 0.0000 (   118 PWs)   bands (ev):

   -33.7804 -33.4949  16.1338  17.0278  42.7624  42.7690  43.2164

          k = 0.0000-0.5000 0.0000 (   118 PWs)   bands (ev):

   -33.8754 -33.3971  15.8344  17.3356  42.6140  42.6186  43.3762

          k = 0.0000-0.2500 0.2500 (   122 PWs)   bands (ev):

   -35.2064 -31.9331  16.1262  18.6039  30.4028  37.7000  46.3514

          k = 0.2500 0.0000-0.2500 (   122 PWs)   bands (ev):

   -35.2040 -31.9357  16.1006  18.6382  30.3830  37.7103  46.3881

          k =-0.2500 0.0000-0.2500 (   122 PWs)   bands (ev):

   -35.2044 -31.9353  16.1458  18.5782  30.4014  37.7105  46.3737

          k = 0.2500-0.2500 0.0000 (   122 PWs)   bands (ev):

   -35.2072 -31.9321  16.1397  18.5886  30.4100  37.6945  46.3354

          k =-0.2500-0.2500 0.0000 (   122 PWs)   bands (ev):

   -35.2062 -31.9333  16.0201  18.7499  30.3582  37.6940  46.3756

          k = 0.2500 0.0000 0.5000 (   126 PWs)   bands (ev):

   -33.4080 -33.2793  14.8124  15.1685  35.9647  36.1997  45.3363

          k =-0.5000-0.2500 0.0000 (   126 PWs)   bands (ev):

   -33.4501 -33.2373  14.7050  15.2927  35.8698  36.2612  45.6884

          k = 0.0000-0.5000 0.2500 (   126 PWs)   bands (ev):

   -33.5207 -33.1649  14.5037  15.4901  35.7522  36.4041  45.1069

          k = 0.2500-0.5000 0.0000 (   126 PWs)   bands (ev):

   -33.5209 -33.1650  14.5064  15.4929  35.7460  36.3990  45.1045

          k =-0.5000 0.0000 0.2500 (   126 PWs)   bands (ev):

   -33.4497 -33.2372  14.6978  15.2853  35.8896  36.2776  45.2511

          k =-0.5000 0.0000 0.5000 (   112 PWs)   bands (ev):

   -32.8352 -32.8290  13.2123  13.2219  35.1224  35.1608  50.4342

          k =-0.5000 0.5000 0.0000 (   112 PWs)   bands (ev):

   -32.8412 -32.8242  13.2162  13.2438  35.0575  35.1647  50.3886

          k =-0.2500-0.2500 0.2500 (   121 PWs)   bands (ev):

   -34.5288 -32.0175  15.4615  21.2878  21.3444  42.7067  42.7760

          k =-0.2500 0.2500-0.2500 (   121 PWs)   bands (ev):

   -34.5291 -32.0177  15.4869  21.2889  21.2994  42.7605  42.7773

          k = 0.2500-0.2500-0.2500 (   121 PWs)   bands (ev):

   -34.5289 -32.0176  15.4689  21.2909  21.3284  42.7230  42.7752

          k =-0.2500 0.2500 0.5000 (   116 PWs)   bands (ev):

   -32.9746 -32.8862  15.6474  15.9229  29.2725  29.4950  45.0738

          k =-0.5000-0.2500 0.2500 (   116 PWs)   bands (ev):

   -33.0033 -32.8573  15.5608  16.0152  29.1979  29.5661  44.9558

          k = 0.5000-0.2500-0.2500 (   116 PWs)   bands (ev):

   -33.0034 -32.8573  15.5620  16.0160  29.1942  29.5617  44.9631

          k =-0.2500-0.5000 0.2500 (   116 PWs)   bands (ev):

   -33.0522 -32.8079  15.4113  16.1735  29.0736  29.6904  44.7511

          k =-0.2500 0.5000-0.2500 (   116 PWs)   bands (ev):

   -33.0521 -32.8080  15.4105  16.1731  29.0758  29.6932  44.7463

          k =-0.5000 0.2500 0.5000 (   120 PWs)   bands (ev):

   -32.6339 -32.6290  15.9069  15.9155  28.1291  28.1525  37.5008

          k =-0.5000 0.5000 0.2500 (   120 PWs)   bands (ev):

   -32.6383 -32.6251  15.9120  15.9368  28.0810  28.1460  37.4844

     the Fermi energy is    15.9609 ev

!    total energy              =     -28.83686913 Ry
     total all-electron energy =       -28.836892 Ry
     estimated scf accuracy    <          1.6E-09 Ry
     smearing contrib. (-TS)   =      -0.00208789 Ry
     internal energy E=F+TS    =     -28.83478123 Ry

     The total energy is F=E-TS. E is the sum of the following terms:
     one-electron contribution =      -7.08204491 Ry
     hartree contribution      =       4.54815807 Ry
     xc contribution           =      -7.79454369 Ry
     ewald contribution        =     -18.65367511 Ry
     one-center paw contrib.   =       0.14732441 Ry

     convergence has been achieved in   5 iterations

     Forces acting on atoms (cartesian axes, Ry/au):

     atom    1 type  1   force =    -0.02571560    0.05296748   -0.01017664
     atom    2 type  1   force =     0.02571560   -0.05296748    0.01017664

     Total force =     0.084503     Total SCF correction =     0.000120


     Computing stress (Cartesian axis) and pressure

          total   stress  (Ry/bohr**3)                   (kbar)     P=     3262.40
   0.02215150   0.00033052  -0.00009731         3258.60       48.62      -14.32
   0.00033052   0.02192040   0.00018713           48.62     3224.60       27.53
  -0.00009731   0.00018713   0.02246018          -14.32       27.53     3304.01


     Writing all to output data dir ./tmp/Li_config_1.save/ :
     XML data file, charge density, pseudopotentials, collected wavefunctions

     init_run     :      0.11s CPU      0.13s WALL (       1 calls)
     electrons    :      0.28s CPU      0.30s WALL (       1 calls)
     forces       :      0.00s CPU      0.00s WALL (       1 calls)
     stress       :      0.02s CPU      0.02s WALL (       1 calls)

     Called by init_run:
     wfcinit      :      0.01s CPU      0.02s WALL (       1 calls)
     potinit      :      0.03s CPU      0.03s WALL (       1 calls)
     hinit0       :      0.07s CPU      0.07s WALL (       1 calls)

     Called by electrons:
     c_bands      :      0.12s CPU      0.13s WALL (       6 calls)
     sum_band     :      0.03s CPU      0.03s WALL (       6 calls)
     v_of_rho     :      0.01s CPU      0.01s WALL (       6 calls)
     newd         :      0.01s CPU      0.01s WALL (       6 calls)
     PAW_pot      :      0.14s CPU      0.14s WALL (       6 calls)
     mix_rho      :      0.00s CPU      0.00s WALL (       6 calls)

     Called by c_bands:
     init_us_2    :      0.01s CPU      0.01s WALL (     540 calls)
     cegterg      :      0.12s CPU      0.13s WALL (     216 calls)

     Called by *egterg:
     cdiaghg      :      0.02s CPU      0.03s WALL (     648 calls)
     h_psi        :      0.08s CPU      0.09s WALL (     720 calls)
     s_psi        :      0.00s CPU      0.00s WALL (     720 calls)
     g_psi        :      0.00s CPU      0.00s WALL (     468 calls)

     Called by h_psi:
     h_psi:calbec :      0.00s CPU      0.00s WALL (     720 calls)
     vloc_psi     :      0.07s CPU      0.08s WALL (     720 calls)
     add_vuspsi   :      0.00s CPU      0.01s WALL (     720 calls)

     General routines
     calbec       :      0.01s CPU      0.01s WALL (    1116 calls)
     fft          :      0.00s CPU      0.01s WALL (      85 calls)
     ffts         :      0.00s CPU      0.00s WALL (      12 calls)
     fftw         :      0.06s CPU      0.07s WALL (    9360 calls)
     interpolate  :      0.00s CPU      0.00s WALL (       6 calls)

     Parallel routines

     PWSCF        :      0.44s CPU      0.52s WALL


   This run was terminated on:   7:29:37  11Mar2025            

=------------------------------------------------------------------------------=
   JOB DONE.
=------------------------------------------------------------------------------=
Note: The following floating-point exceptions are signalling: IEEE_INVALID_FLAG IEEE_DIVIDE_BY_ZERO IEEE_OVERFLOW_FLAG IEEE_UNDERFLOW_FLAG
