BEGIN_CFG
 Size
    1
 Supercell
   1.764858      1.764858      1.764858
   -1.764858      1.764858      1.764858
   -1.764858      -1.764858      1.764858
 AtomData:  id    type    cartes_x      cartes_y      cartes_z           fx          fy          fz
            1     0       -0.004679      0.000214      0.004004           0.000000      0.000000      0.000000
 PlusStress: xx          yy          zz          yz          xz          xy
         -0.009122   -0.009122   -0.009122    0.000000    -0.000000    0.000000
 Energy
    -1.686349
END_CFG

BEGIN_CFG
 Size
    1
 Supercell
   1.743559      1.743559      1.743559
   -1.743559      1.743559      1.743559
   -1.743559      -1.743559      1.743559
 AtomData:  id    type    cartes_x      cartes_y      cartes_z           fx          fy          fz
            1     0       0.000066      0.003002      0.002532           0.000000      0.000000      0.000000
 PlusStress: xx          yy          zz          yz          xz          xy
         -0.006798   -0.006798   -0.006798    0.000000    0.000000    0.000000
 Energy
    -1.689240
END_CFG

BEGIN_CFG
 Size
    1
 Supercell
   1.769885      1.769885      1.769885
   -1.769885      1.769885      1.769885
   -1.769885      -1.769885      1.769885
 AtomData:  id    type    cartes_x      cartes_y      cartes_z           fx          fy          fz
            1     0       0.002161      -0.002887      -0.006218           0.000000      0.000000      0.000000
 PlusStress: xx          yy          zz          yz          xz          xy
         -0.009627   -0.009627   -0.009627    0.000000    -0.000000    -0.000000
 Energy
    -1.685367
END_CFG

BEGIN_CFG
 Size
    1
 Supercell
   1.739669      1.739669      1.739669
   -1.739669      1.739669      1.739669
   -1.739669      -1.739669      1.739669
 AtomData:  id    type    cartes_x      cartes_y      cartes_z           fx          fy          fz
            1     0       0.001870      0.001011      -0.001432           0.000000      0.000000      0.000000
 PlusStress: xx          yy          zz          yz          xz          xy
         -0.006307   -0.006307   -0.006307    -0.000000    0.000000    -0.000000
 Energy
    -1.689637
END_CFG

BEGIN_CFG
 Size
    1
 Supercell
   1.754539      1.754539      1.754539
   -1.754539      1.754539      1.754539
   -1.754539      -1.754539      1.754539
 AtomData:  id    type    cartes_x      cartes_y      cartes_z           fx          fy          fz
            1     0       -0.002158      -0.006853      -0.002063           0.000000      0.000000      0.000000
 PlusStress: xx          yy          zz          yz          xz          xy
         -0.007997   -0.007997   -0.007997    0.000000    0.000000    0.000000
 Energy
    -1.688142
END_CFG

BEGIN_CFG
 Size
    1
 Supercell
   1.738399      1.738399      1.738399
   -1.738399      1.738399      1.738399
   -1.738399      -1.738399      1.738399
 AtomData:  id    type    cartes_x      cartes_y      cartes_z           fx          fy          fz
            1     0       0.001373      -0.002952      0.001401           0.000000      0.000000      0.000000
 PlusStress: xx          yy          zz          yz          xz          xy
         -0.006146   -0.006146   -0.006146    0.000000    -0.000000    0.000000
 Energy
    -1.689778
END_CFG

BEGIN_CFG
 Size
    1
 Supercell
   1.762450      1.762450      1.762450
   -1.762450      1.762450      1.762450
   -1.762450      -1.762450      1.762450
 AtomData:  id    type    cartes_x      cartes_y      cartes_z           fx          fy          fz
            1     0       -0.001593      -0.000497      0.004110           0.000000      0.000000      0.000000
 PlusStress: xx          yy          zz          yz          xz          xy
         -0.008872   -0.008872   -0.008872    0.000000    -0.000000    0.000000
 Energy
    -1.686819
END_CFG

BEGIN_CFG
 Size
    1
 Supercell
   1.767107      1.767107      1.767107
   -1.767107      1.767107      1.767107
   -1.767107      -1.767107      1.767107
 AtomData:  id    type    cartes_x      cartes_y      cartes_z           fx          fy          fz
            1     0       -0.000456      0.000905      0.005588           0.000000      0.000000      0.000000
 PlusStress: xx          yy          zz          yz          xz          xy
         -0.009350   -0.009350   -0.009350    -0.000000    -0.000000    -0.000000
 Energy
    -1.685933
END_CFG

BEGIN_CFG
 Size
    1
 Supercell
   1.746337      1.746337      1.746337
   -1.746337      1.746337      1.746337
   -1.746337      -1.746337      1.746337
 AtomData:  id    type    cartes_x      cartes_y      cartes_z           fx          fy          fz
            1     0       -0.001516      0.001383      -0.001023           0.000000      0.000000      0.000000
 PlusStress: xx          yy          zz          yz          xz          xy
         -0.007110   -0.007110   -0.007110    -0.000000    -0.000000    -0.000000
 Energy
    -1.689128
END_CFG

BEGIN_CFG
 Size
    1
 Supercell
   1.768351      1.768351      1.768351
   -1.768351      1.768351      1.768351
   -1.768351      -1.768351      1.768351
 AtomData:  id    type    cartes_x      cartes_y      cartes_z           fx          fy          fz
            1     0       -0.005737      -0.003381      0.001178           0.000000      0.000000      0.000000
 PlusStress: xx          yy          zz          yz          xz          xy
         -0.009483   -0.009483   -0.009483    -0.000000    -0.000000    0.000000
 Energy
    -1.685649
END_CFG

BEGIN_CFG
 Size
    2
 Supercell
   1.857729      0.000000      0.000000
   0.000000      1.857729      0.000000
   0.000000      0.000000      1.857729
 AtomData:  id    type    cartes_x      cartes_y      cartes_z           fx          fy          fz
            1     0       0.000000      0.000000      0.000000           -1.228802      1.568970      -0.826683
            2     0       0.949717      0.893870      0.941519           1.228802      -1.568970      0.826683
 PlusStress: xx          yy          zz          yz          xz          xy
         3.035095   3.046384   3.037243   -0.004812   0.003383   -0.007346
 Energy
    5.447563
END_CFG

BEGIN_CFG
 Size
    2
 Supercell
   1.894559      0.000000      0.000000
   0.000000      1.894559      0.000000
   0.000000      0.000000      1.894559
 AtomData:  id    type    cartes_x      cartes_y      cartes_z           fx          fy          fz
            1     0       0.000000      0.000000      0.000000           1.044248      1.044248      1.044248
            2     0       0.928705      0.928705      0.928705           -1.044248      -1.044248      -1.044248
 PlusStress: xx          yy          zz          yz          xz          xy
         2.775208   2.775208   2.775208   -0.003110   -0.003110   -0.003110
 Energy
    4.877432
END_CFG

BEGIN_CFG
 Size
    2
 Supercell
   1.857517      0.000000      0.000000
   0.000000      1.857517      0.000000
   0.000000      0.000000      1.857517
 AtomData:  id    type    cartes_x      cartes_y      cartes_z           fx          fy          fz
            1     0       0.000000      0.000000      0.000000           0.333730      -0.067652      -0.256594
            2     0       0.924451      0.929617      0.932046           -0.333730      0.067652      0.256594
 PlusStress: xx          yy          zz          yz          xz          xy
         3.038606   3.039961   3.039168   0.000040   -0.000201   -0.000052
 Energy
    5.477953
END_CFG

BEGIN_CFG
 Size
    2
 Supercell
   1.875985      0.000000      0.000000
   0.000000      1.875985      0.000000
   0.000000      0.000000      1.875985
 AtomData:  id    type    cartes_x      cartes_y      cartes_z           fx          fy          fz
            1     0       0.000000      0.000000      0.000000           0.683740      0.683740      0.683740
            2     0       0.928707      0.928707      0.928707           -0.683740      -0.683740      -0.683740
 PlusStress: xx          yy          zz          yz          xz          xy
         2.899399   2.899399   2.899399   0.000523   0.000523   0.000523
 Energy
    5.179816
END_CFG

BEGIN_CFG
 Size
    2
 Supercell
   1.820263      0.000000      0.000000
   0.000000      1.820263      0.000000
   0.000000      0.000000      1.820263
 AtomData:  id    type    cartes_x      cartes_y      cartes_z           fx          fy          fz
            1     0       0.000000      0.000000      0.000000           -1.392043      -1.392043      -1.392043
            2     0       0.928705      0.928705      0.928705           1.392043      1.392043      1.392043
 PlusStress: xx          yy          zz          yz          xz          xy
         3.369852   3.369852   3.369852   0.004600   0.004600   0.004600
 Energy
    6.083197
END_CFG

BEGIN_CFG
 Size
    2
 Supercell
   1.857464      0.000000      0.000000
   0.000000      1.857464      0.000000
   0.000000      0.000000      1.857464
 AtomData:  id    type    cartes_x      cartes_y      cartes_z           fx          fy          fz
            1     0       0.000000      0.000000      0.000000           -0.239830      0.719640      -0.487382
            2     0       0.932011      0.918544      0.935486           0.239830      -0.719640      0.487382
 PlusStress: xx          yy          zz          yz          xz          xy
         3.045642   3.040645   3.043283   -0.000954   0.000313   -0.000466
 Energy
    5.476338
END_CFG

BEGIN_CFG
 Size
    2
 Supercell
   1.857517      0.000000      0.000000
   0.000000      1.857517      0.000000
   0.000000      0.000000      1.857517
 AtomData:  id    type    cartes_x      cartes_y      cartes_z           fx          fy          fz
            1     0       0.000000      0.000000      0.000000           -0.781310      1.066490      -0.313896
            2     0       0.940283      0.912242      0.933386           0.781310      -1.066490      0.313896
 PlusStress: xx          yy          zz          yz          xz          xy
         3.045933   3.043720   3.051189   -0.001027   0.000740   -0.002500
 Energy
    5.471095
END_CFG

BEGIN_CFG
 Size
    2
 Supercell
   1.857411      0.000000      0.000000
   0.000000      1.857411      0.000000
   0.000000      0.000000      1.857411
 AtomData:  id    type    cartes_x      cartes_y      cartes_z           fx          fy          fz
            1     0       0.000041      0.000041      0.000041           0.006579      0.006579      0.006579
            2     0       0.928665      0.928665      0.928665           -0.006579      -0.006579      -0.006579
 PlusStress: xx          yy          zz          yz          xz          xy
         3.039179   3.039179   3.039179   -0.000000   -0.000000   -0.000000
 Energy
    5.480059
END_CFG

BEGIN_CFG
 Size
    2
 Supercell
   1.838837      0.000000      0.000000
   0.000000      1.838837      0.000000
   0.000000      0.000000      1.838837
 AtomData:  id    type    cartes_x      cartes_y      cartes_z           fx          fy          fz
            1     0       0.000000      0.000000      0.000000           -0.629022      -0.629022      -0.629022
            2     0       0.928707      0.928707      0.928707           0.629022      0.629022      0.629022
 PlusStress: xx          yy          zz          yz          xz          xy
         3.205814   3.205814   3.205814   0.001418   0.001418   0.001418
 Energy
    5.778959
END_CFG

BEGIN_CFG
 Size
    2
 Supercell
   1.857411      0.000000      0.000000
   0.000000      1.857411      0.000000
   0.000000      0.000000      1.857411
 AtomData:  id    type    cartes_x      cartes_y      cartes_z           fx          fy          fz
            1     0       0.000082      0.000082      0.000082           0.013148      0.013148      0.013148
            2     0       0.928624      0.928624      0.928624           -0.013148      -0.013148      -0.013148
 PlusStress: xx          yy          zz          yz          xz          xy
         3.039186   3.039186   3.039186   0.000000   0.000000   0.000000
 Energy
    5.480058
END_CFG

BEGIN_CFG
 Size
    2
 Supercell
   1.857517      0.000000      0.000000
   0.000000      1.857517      0.000000
   0.000000      0.000000      1.857517
 AtomData:  id    type    cartes_x      cartes_y      cartes_z           fx          fy          fz
            1     0       0.000000      0.000000      0.000000           0.333730      -0.067652      -0.256594
            2     0       0.924451      0.929617      0.932046           -0.333730      0.067652      0.256594
 PlusStress: xx          yy          zz          yz          xz          xy
         3.038606   3.039961   3.039168   0.000040   -0.000201   -0.000052
 Energy
    5.477953
END_CFG

BEGIN_CFG
 Size
    2
 Supercell
   1.857464      0.000000      0.000000
   0.000000      1.857464      0.000000
   0.000000      0.000000      1.857464
 AtomData:  id    type    cartes_x      cartes_y      cartes_z           fx          fy          fz
            1     0       0.000000      0.000000      0.000000           -0.239830      0.719640      -0.487382
            2     0       0.932011      0.918544      0.935486           0.239830      -0.719640      0.487382
 PlusStress: xx          yy          zz          yz          xz          xy
         3.045642   3.040645   3.043283   -0.000954   0.000313   -0.000466
 Energy
    5.476338
END_CFG

BEGIN_CFG
 Size
    2
 Supercell
   1.857411      0.000000      0.000000
   0.000000      1.857411      0.000000
   0.000000      0.000000      1.857411
 AtomData:  id    type    cartes_x      cartes_y      cartes_z           fx          fy          fz
            1     0       0.000041      0.000041      0.000041           0.006579      0.006579      0.006579
            2     0       0.928665      0.928665      0.928665           -0.006579      -0.006579      -0.006579
 PlusStress: xx          yy          zz          yz          xz          xy
         3.039179   3.039179   3.039179   -0.000000   -0.000000   -0.000000
 Energy
    5.480059
END_CFG

BEGIN_CFG
 Size
    2
 Supercell
   1.857729      0.000000      0.000000
   0.000000      1.857729      0.000000
   0.000000      0.000000      1.857729
 AtomData:  id    type    cartes_x      cartes_y      cartes_z           fx          fy          fz
            1     0       0.000000      0.000000      0.000000           -1.228802      1.568970      -0.826683
            2     0       0.949717      0.893870      0.941519           1.228802      -1.568970      0.826683
 PlusStress: xx          yy          zz          yz          xz          xy
         3.035095   3.046384   3.037243   -0.004812   0.003383   -0.007346
 Energy
    5.447563
END_CFG

BEGIN_CFG
 Size
    2
 Supercell
   1.820263      0.000000      0.000000
   0.000000      1.820263      0.000000
   0.000000      0.000000      1.820263
 AtomData:  id    type    cartes_x      cartes_y      cartes_z           fx          fy          fz
            1     0       0.000000      0.000000      0.000000           -1.392043      -1.392043      -1.392043
            2     0       0.928705      0.928705      0.928705           1.392043      1.392043      1.392043
 PlusStress: xx          yy          zz          yz          xz          xy
         3.369852   3.369852   3.369852   0.004600   0.004600   0.004600
 Energy
    6.083197
END_CFG

BEGIN_CFG
 Size
    2
 Supercell
   1.857411      0.000000      0.000000
   0.000000      1.857411      0.000000
   0.000000      0.000000      1.857411
 AtomData:  id    type    cartes_x      cartes_y      cartes_z           fx          fy          fz
            1     0       0.000082      0.000082      0.000082           0.013148      0.013148      0.013148
            2     0       0.928624      0.928624      0.928624           -0.013148      -0.013148      -0.013148
 PlusStress: xx          yy          zz          yz          xz          xy
         3.039186   3.039186   3.039186   0.000000   0.000000   0.000000
 Energy
    5.480058
END_CFG

BEGIN_CFG
 Size
    2
 Supercell
   1.857411      0.000000      0.000000
   0.000000      1.857411      0.000000
   0.000000      0.000000      1.857411
 AtomData:  id    type    cartes_x      cartes_y      cartes_z           fx          fy          fz
            1     0       0.000123      0.000123      0.000123           0.019720      0.019720      0.019720
            2     0       0.928583      0.928583      0.928583           -0.019720      -0.019720      -0.019720
 PlusStress: xx          yy          zz          yz          xz          xy
         3.039189   3.039189   3.039189   0.000001   0.000001   0.000001
 Energy
    5.480056
END_CFG

BEGIN_CFG
 Size
    2
 Supercell
   1.857517      0.000000      0.000000
   0.000000      1.857517      0.000000
   0.000000      0.000000      1.857517
 AtomData:  id    type    cartes_x      cartes_y      cartes_z           fx          fy          fz
            1     0       0.000000      0.000000      0.000000           -0.781310      1.066490      -0.313896
            2     0       0.940283      0.912242      0.933386           0.781310      -1.066490      0.313896
 PlusStress: xx          yy          zz          yz          xz          xy
         3.045933   3.043720   3.051189   -0.001027   0.000740   -0.002500
 Energy
    5.471095
END_CFG

BEGIN_CFG
 Size
    2
 Supercell
   1.838837      0.000000      0.000000
   0.000000      1.838837      0.000000
   0.000000      0.000000      1.838837
 AtomData:  id    type    cartes_x      cartes_y      cartes_z           fx          fy          fz
            1     0       0.000000      0.000000      0.000000           -0.629022      -0.629022      -0.629022
            2     0       0.928707      0.928707      0.928707           0.629022      0.629022      0.629022
 PlusStress: xx          yy          zz          yz          xz          xy
         3.205814   3.205814   3.205814   0.001418   0.001418   0.001418
 Energy
    5.778959
END_CFG

BEGIN_CFG
 Size
    2
 Supercell
   1.894559      0.000000      0.000000
   0.000000      1.894559      0.000000
   0.000000      0.000000      1.894559
 AtomData:  id    type    cartes_x      cartes_y      cartes_z           fx          fy          fz
            1     0       0.000000      0.000000      0.000000           1.044248      1.044248      1.044248
            2     0       0.928705      0.928705      0.928705           -1.044248      -1.044248      -1.044248
 PlusStress: xx          yy          zz          yz          xz          xy
         2.775208   2.775208   2.775208   -0.003110   -0.003110   -0.003110
 Energy
    4.877432
END_CFG

BEGIN_CFG
 Size
    2
 Supercell
   1.875985      0.000000      0.000000
   0.000000      1.875985      0.000000
   0.000000      0.000000      1.875985
 AtomData:  id    type    cartes_x      cartes_y      cartes_z           fx          fy          fz
            1     0       0.000000      0.000000      0.000000           0.683740      0.683740      0.683740
            2     0       0.928707      0.928707      0.928707           -0.683740      -0.683740      -0.683740
 PlusStress: xx          yy          zz          yz          xz          xy
         2.899399   2.899399   2.899399   0.000523   0.000523   0.000523
 Energy
    5.179816
END_CFG

BEGIN_CFG
 Size
    2
 Supercell
   1.820263      0.000000      0.000000
   0.000000      1.820263      0.000000
   0.000000      0.000000      1.820263
 AtomData:  id    type    cartes_x      cartes_y      cartes_z           fx          fy          fz
            1     0       0.000000      0.000000      0.000000           -1.392043      -1.392043      -1.392043
            2     0       0.928705      0.928705      0.928705           1.392043      1.392043      1.392043
 PlusStress: xx          yy          zz          yz          xz          xy
         3.369852   3.369852   3.369852   0.004600   0.004600   0.004600
 Energy
    6.083197
END_CFG

BEGIN_CFG
 Size
    2
 Supercell
   1.857464      0.000000      0.000000
   0.000000      1.857464      0.000000
   0.000000      0.000000      1.857464
 AtomData:  id    type    cartes_x      cartes_y      cartes_z           fx          fy          fz
            1     0       0.000000      0.000000      0.000000           -0.239830      0.719640      -0.487382
            2     0       0.932011      0.918544      0.935486           0.239830      -0.719640      0.487382
 PlusStress: xx          yy          zz          yz          xz          xy
         3.045642   3.040645   3.043283   -0.000954   0.000313   -0.000466
 Energy
    5.476338
END_CFG

BEGIN_CFG
 Size
    2
 Supercell
   1.857411      0.000000      0.000000
   0.000000      1.857411      0.000000
   0.000000      0.000000      1.857411
 AtomData:  id    type    cartes_x      cartes_y      cartes_z           fx          fy          fz
            1     0       0.000082      0.000082      0.000082           0.013148      0.013148      0.013148
            2     0       0.928624      0.928624      0.928624           -0.013148      -0.013148      -0.013148
 PlusStress: xx          yy          zz          yz          xz          xy
         3.039186   3.039186   3.039186   0.000000   0.000000   0.000000
 Energy
    5.480058
END_CFG

BEGIN_CFG
 Size
    2
 Supercell
   1.857517      0.000000      0.000000
   0.000000      1.857517      0.000000
   0.000000      0.000000      1.857517
 AtomData:  id    type    cartes_x      cartes_y      cartes_z           fx          fy          fz
            1     0       0.000000      0.000000      0.000000           0.333730      -0.067652      -0.256594
            2     0       0.924451      0.929617      0.932046           -0.333730      0.067652      0.256594
 PlusStress: xx          yy          zz          yz          xz          xy
         3.038606   3.039961   3.039168   0.000040   -0.000201   -0.000052
 Energy
    5.477953
END_CFG

BEGIN_CFG
 Size
    2
 Supercell
   1.857411      0.000000      0.000000
   0.000000      1.857411      0.000000
   0.000000      0.000000      1.857411
 AtomData:  id    type    cartes_x      cartes_y      cartes_z           fx          fy          fz
            1     0       0.000163      0.000163      0.000163           0.026290      0.026290      0.026290
            2     0       0.928542      0.928542      0.928542           -0.026290      -0.026290      -0.026290
 PlusStress: xx          yy          zz          yz          xz          xy
         3.039190   3.039190   3.039190   0.000001   0.000001   0.000001
 Energy
    5.480053
END_CFG

BEGIN_CFG
 Size
    2
 Supercell
   1.838837      0.000000      0.000000
   0.000000      1.838837      0.000000
   0.000000      0.000000      1.838837
 AtomData:  id    type    cartes_x      cartes_y      cartes_z           fx          fy          fz
            1     0       0.000000      0.000000      0.000000           -0.629022      -0.629022      -0.629022
            2     0       0.928707      0.928707      0.928707           0.629022      0.629022      0.629022
 PlusStress: xx          yy          zz          yz          xz          xy
         3.205814   3.205814   3.205814   0.001418   0.001418   0.001418
 Energy
    5.778959
END_CFG

BEGIN_CFG
 Size
    2
 Supercell
   1.875985      0.000000      0.000000
   0.000000      1.875985      0.000000
   0.000000      0.000000      1.875985
 AtomData:  id    type    cartes_x      cartes_y      cartes_z           fx          fy          fz
            1     0       0.000000      0.000000      0.000000           0.683740      0.683740      0.683740
            2     0       0.928707      0.928707      0.928707           -0.683740      -0.683740      -0.683740
 PlusStress: xx          yy          zz          yz          xz          xy
         2.899399   2.899399   2.899399   0.000523   0.000523   0.000523
 Energy
    5.179816
END_CFG

BEGIN_CFG
 Size
    2
 Supercell
   1.857411      0.000000      0.000000
   0.000000      1.857411      0.000000
   0.000000      0.000000      1.857411
 AtomData:  id    type    cartes_x      cartes_y      cartes_z           fx          fy          fz
            1     0       0.000123      0.000123      0.000123           0.019720      0.019720      0.019720
            2     0       0.928583      0.928583      0.928583           -0.019720      -0.019720      -0.019720
 PlusStress: xx          yy          zz          yz          xz          xy
         3.039189   3.039189   3.039189   0.000001   0.000001   0.000001
 Energy
    5.480056
END_CFG

BEGIN_CFG
 Size
    2
 Supercell
   1.857517      0.000000      0.000000
   0.000000      1.857517      0.000000
   0.000000      0.000000      1.857517
 AtomData:  id    type    cartes_x      cartes_y      cartes_z           fx          fy          fz
            1     0       0.000000      0.000000      0.000000           -0.781310      1.066490      -0.313896
            2     0       0.940283      0.912242      0.933386           0.781310      -1.066490      0.313896
 PlusStress: xx          yy          zz          yz          xz          xy
         3.045933   3.043720   3.051189   -0.001027   0.000740   -0.002500
 Energy
    5.471095
END_CFG

BEGIN_CFG
 Size
    2
 Supercell
   1.894559      0.000000      0.000000
   0.000000      1.894559      0.000000
   0.000000      0.000000      1.894559
 AtomData:  id    type    cartes_x      cartes_y      cartes_z           fx          fy          fz
            1     0       0.000000      0.000000      0.000000           1.044248      1.044248      1.044248
            2     0       0.928705      0.928705      0.928705           -1.044248      -1.044248      -1.044248
 PlusStress: xx          yy          zz          yz          xz          xy
         2.775208   2.775208   2.775208   -0.003110   -0.003110   -0.003110
 Energy
    4.877432
END_CFG

BEGIN_CFG
 Size
    2
 Supercell
   1.857729      0.000000      0.000000
   0.000000      1.857729      0.000000
   0.000000      0.000000      1.857729
 AtomData:  id    type    cartes_x      cartes_y      cartes_z           fx          fy          fz
            1     0       0.000000      0.000000      0.000000           -1.228802      1.568970      -0.826683
            2     0       0.949717      0.893870      0.941519           1.228802      -1.568970      0.826683
 PlusStress: xx          yy          zz          yz          xz          xy
         3.035095   3.046384   3.037243   -0.004812   0.003383   -0.007346
 Energy
    5.447563
END_CFG

BEGIN_CFG
 Size
    2
 Supercell
   1.857411      0.000000      0.000000
   0.000000      1.857411      0.000000
   0.000000      0.000000      1.857411
 AtomData:  id    type    cartes_x      cartes_y      cartes_z           fx          fy          fz
            1     0       0.000123      0.000123      0.000123           0.019720      0.019720      0.019720
            2     0       0.928583      0.928583      0.928583           -0.019720      -0.019720      -0.019720
 PlusStress: xx          yy          zz          yz          xz          xy
         3.039189   3.039189   3.039189   0.000001   0.000001   0.000001
 Energy
    5.480056
END_CFG

BEGIN_CFG
 Size
    2
 Supercell
   1.875985      0.000000      0.000000
   0.000000      1.875985      0.000000
   0.000000      0.000000      1.875985
 AtomData:  id    type    cartes_x      cartes_y      cartes_z           fx          fy          fz
            1     0       0.000000      0.000000      0.000000           0.683740      0.683740      0.683740
            2     0       0.928707      0.928707      0.928707           -0.683740      -0.683740      -0.683740
 PlusStress: xx          yy          zz          yz          xz          xy
         2.899399   2.899399   2.899399   0.000523   0.000523   0.000523
 Energy
    5.179816
END_CFG

BEGIN_CFG
 Size
    2
 Supercell
   1.857464      0.000000      0.000000
   0.000000      1.857464      0.000000
   0.000000      0.000000      1.857464
 AtomData:  id    type    cartes_x      cartes_y      cartes_z           fx          fy          fz
            1     0       0.000000      0.000000      0.000000           -0.239830      0.719640      -0.487382
            2     0       0.932011      0.918544      0.935486           0.239830      -0.719640      0.487382
 PlusStress: xx          yy          zz          yz          xz          xy
         3.045642   3.040645   3.043283   -0.000954   0.000313   -0.000466
 Energy
    5.476338
END_CFG

BEGIN_CFG
 Size
    2
 Supercell
   1.838837      0.000000      0.000000
   0.000000      1.838837      0.000000
   0.000000      0.000000      1.838837
 AtomData:  id    type    cartes_x      cartes_y      cartes_z           fx          fy          fz
            1     0       0.000000      0.000000      0.000000           -0.629022      -0.629022      -0.629022
            2     0       0.928707      0.928707      0.928707           0.629022      0.629022      0.629022
 PlusStress: xx          yy          zz          yz          xz          xy
         3.205814   3.205814   3.205814   0.001418   0.001418   0.001418
 Energy
    5.778959
END_CFG

BEGIN_CFG
 Size
    2
 Supercell
   1.820263      0.000000      0.000000
   0.000000      1.820263      0.000000
   0.000000      0.000000      1.820263
 AtomData:  id    type    cartes_x      cartes_y      cartes_z           fx          fy          fz
            1     0       0.000000      0.000000      0.000000           -1.392043      -1.392043      -1.392043
            2     0       0.928705      0.928705      0.928705           1.392043      1.392043      1.392043
 PlusStress: xx          yy          zz          yz          xz          xy
         3.369852   3.369852   3.369852   0.004600   0.004600   0.004600
 Energy
    6.083197
END_CFG

BEGIN_CFG
 Size
    2
 Supercell
   1.857729      0.000000      0.000000
   0.000000      1.857729      0.000000
   0.000000      0.000000      1.857729