
     Program PWSCF v.7.3.1 starts on 18Mar2025 at  8:55:49 

     This program is part of the open-source Quantum ESPRESSO suite
     for quantum simulation of materials; please cite
         "P. Giannozzi et al., J. Phys.:Condens. Matter 21 395502 (2009);
         "P. Giannozzi et al., J. Phys.:Condens. Matter 29 465901 (2017);
         "P. Giannozzi et al., J. Chem. Phys. 152 154105 (2020);
          URL http://www.quantum-espresso.org", 
     in publications or presentations arising from this work. More details at
     http://www.quantum-espresso.org/quote

     Parallel version (MPI), running on     1 processors

     MPI processes distributed on     1 nodes
     0 MiB available memory on the printing compute node when the environment starts

     Reading input from Li_config_6.in

     Current dimensions of program PWSCF are:
     Max number of different atomic species (ntypx) = 10
     Max number of k-points (npk) =  40000
     Max angular momentum in pseudopotentials (lmaxx) =  4

     Subspace diagonalization in iterative solution of the eigenvalue problem:
     a serial algorithm will be used


     G-vector sticks info
     --------------------
     sticks:   dense  smooth     PW     G-vecs:    dense   smooth      PW
     Sum         731     579    181                12527     8853    1553

     Using Slab Decomposition



     bravais-lattice index     =            3
     lattice parameter (alat)  =       6.5702  a.u.
     unit-cell volume          =     141.8083 (a.u.)^3
     number of atoms/cell      =            1
     number of atomic types    =            1
     number of electrons       =         3.00
     number of Kohn-Sham states=            6
     kinetic-energy cutoff     =      60.0000  Ry
     charge density cutoff     =     300.0000  Ry
     scf convergence threshold =      1.0E-08
     mixing beta               =       0.7000
     number of iterations used =            8  plain     mixing
     Exchange-correlation= SLA  PW   PBX  PBC
                           (   1   4   3   4   0   0   0)

     celldm(1)=   6.570179  celldm(2)=   0.000000  celldm(3)=   0.000000
     celldm(4)=   0.000000  celldm(5)=   0.000000  celldm(6)=   0.000000

     crystal axes: (cart. coord. in units of alat)
               a(1) = (   0.500000   0.500000   0.500000 )  
               a(2) = (  -0.500000   0.500000   0.500000 )  
               a(3) = (  -0.500000  -0.500000   0.500000 )  

     reciprocal axes: (cart. coord. in units 2 pi/alat)
               b(1) = (  1.000000  0.000000  1.000000 )  
               b(2) = ( -1.000000  1.000000  0.000000 )  
               b(3) = (  0.000000 -1.000000  1.000000 )  


     PseudoPot. # 1 for Li read from file:
     ../pseudopotentials/Li.pbe-s-kjpaw_psl.1.0.0.UPF
     MD5 check sum: d3662511b3860c829f7212fdb89d6128
     Pseudo is Projector augmented-wave, Zval =  3.0
     Generated using &quot;atomic&quot; code by A. Dal Corso  v.6.3
     Shape of augmentation charge: PSQ
     Using radial grid of 1017 points,  4 beta functions with: 
                l(1) =   0
                l(2) =   0
                l(3) =   1
                l(4) =   1
     Q(r) pseudized with 0 coefficients 


     atomic species   valence    mass     pseudopotential
     Li                3.00     6.94000     Li( 1.00)

      2 Sym. Ops. (no inversion) found



   Cartesian axes

     site n.     atom                  positions (alat units)
         1        Li     tau(   1) = (   0.0003950  -0.0008490   0.0004030  )

     number of k points=   150  Gaussian smearing, width (Ry)=  0.0100

     Number of k-points >= 100: set verbosity='high' to print them.

     Dense  grid:    12527 G-vectors     FFT dimensions: (  32,  32,  32)

     Smooth grid:     8853 G-vectors     FFT dimensions: (  30,  30,  30)

     Estimated max dynamical RAM per process >      32.91 MB

     Initial potential from superposition of free atoms

     starting charge       2.9954, renormalised to       3.0000
     Starting wfcs are    5 randomized atomic wfcs +    1 random wfcs
     Checking if some PAW data can be deallocated... 

     total cpu time spent up to now is        0.5 secs

     Self-consistent Calculation

     iteration #  1     ecut=    60.00 Ry     beta= 0.70
     Davidson diagonalization with overlap
     ethr =  1.00E-02,  avg # of iterations =  5.5

     Threshold (ethr) on eigenvalues was too large:
     Diagonalizing with lowered threshold

     Davidson diagonalization with overlap
     ethr =  1.21E-05,  avg # of iterations =  5.8

     total cpu time spent up to now is        3.2 secs

     total energy              =     -15.04118919 Ry
     estimated scf accuracy    <       0.00032569 Ry

     iteration #  2     ecut=    60.00 Ry     beta= 0.70
     Davidson diagonalization with overlap
     ethr =  1.09E-05,  avg # of iterations =  1.0

     total cpu time spent up to now is        4.0 secs

     total energy              =     -15.04119804 Ry
     estimated scf accuracy    <       0.00002006 Ry

     iteration #  3     ecut=    60.00 Ry     beta= 0.70
     Davidson diagonalization with overlap
     ethr =  6.69E-07,  avg # of iterations =  2.2

     total cpu time spent up to now is        4.8 secs

     total energy              =     -15.04120064 Ry
     estimated scf accuracy    <       0.00000041 Ry

     iteration #  4     ecut=    60.00 Ry     beta= 0.70
     Davidson diagonalization with overlap
     ethr =  1.38E-08,  avg # of iterations =  1.2

     total cpu time spent up to now is        5.7 secs

     End of self-consistent calculation

     Number of k-points >= 100: set verbosity='high' to print the bands.

     the Fermi energy is     0.8485 ev

!    total energy              =     -15.04120068 Ry
     total all-electron energy =       -15.041212 Ry
     estimated scf accuracy    <          7.9E-09 Ry
     smearing contrib. (-TS)   =      -0.00065392 Ry
     internal energy E=F+TS    =     -15.04054676 Ry

     The total energy is F=E-TS. E is the sum of the following terms:
     one-electron contribution =     -10.66135557 Ry
     hartree contribution      =       4.11880074 Ry
     xc contribution           =      -3.59559594 Ry
     ewald contribution        =      -4.98511548 Ry
     one-center paw contrib.   =       0.08271948 Ry

     convergence has been achieved in   4 iterations

     Forces acting on atoms (cartesian axes, Ry/au):

     atom    1 type  1   force =     0.00000000    0.00000000    0.00000000

     Total force =     0.000000     Total SCF correction =     0.000011


     Computing stress (Cartesian axis) and pressure

          total   stress  (Ry/bohr**3)                   (kbar)     P=       -9.83
  -0.00006685   0.00000000  -0.00000000           -9.83        0.00       -0.00
   0.00000000  -0.00006685   0.00000000            0.00       -9.83        0.00
  -0.00000000   0.00000000  -0.00006685           -0.00        0.00       -9.83


     Writing all to output data dir ./tmp/Li_config_6.save/ :
     XML data file, charge density, pseudopotentials, collected wavefunctions

     init_run     :      0.43s CPU      0.45s WALL (       1 calls)
     electrons    :      5.03s CPU      5.19s WALL (       1 calls)
     forces       :      0.04s CPU      0.04s WALL (       1 calls)
     stress       :      0.21s CPU      0.22s WALL (       1 calls)

     Called by init_run:
     wfcinit      :      0.31s CPU      0.32s WALL (       1 calls)
     potinit      :      0.03s CPU      0.03s WALL (       1 calls)
     hinit0       :      0.08s CPU      0.08s WALL (       1 calls)

     Called by electrons:
     c_bands      :      4.20s CPU      4.34s WALL (       5 calls)
     sum_band     :      0.74s CPU      0.76s WALL (       5 calls)
     v_of_rho     :      0.03s CPU      0.03s WALL (       5 calls)
     newd         :      0.01s CPU      0.02s WALL (       5 calls)
     PAW_pot      :      0.05s CPU      0.05s WALL (       5 calls)
     mix_rho      :      0.00s CPU      0.00s WALL (       5 calls)

     Called by c_bands:
     init_us_2    :      0.12s CPU      0.13s WALL (    1950 calls)
     cegterg      :      4.11s CPU      4.24s WALL (     750 calls)

     Called by *egterg:
     cdiaghg      :      0.08s CPU      0.08s WALL (    2941 calls)
     h_psi        :      3.82s CPU      3.88s WALL (    3241 calls)
     s_psi        :      0.06s CPU      0.08s WALL (    3241 calls)
     g_psi        :      0.01s CPU      0.01s WALL (    2341 calls)

     Called by h_psi:
     h_psi:calbec :      0.07s CPU      0.09s WALL (    3241 calls)
     vloc_psi     :      3.67s CPU      3.69s WALL (    3241 calls)
     add_vuspsi   :      0.06s CPU      0.08s WALL (    3241 calls)

     General routines
     calbec       :      0.12s CPU      0.15s WALL (    4741 calls)
     fft          :      0.02s CPU      0.03s WALL (      72 calls)
     ffts         :      0.00s CPU      0.00s WALL (      10 calls)
     fftw         :      3.87s CPU      3.89s WALL (   30460 calls)
     interpolate  :      0.00s CPU      0.00s WALL (       5 calls)

     Parallel routines

     PWSCF        :      5.74s CPU      6.01s WALL


   This run was terminated on:   8:55:55  18Mar2025            

=------------------------------------------------------------------------------=
   JOB DONE.
=------------------------------------------------------------------------------=
Note: The following floating-point exceptions are signalling: IEEE_INVALID_FLAG IEEE_DIVIDE_BY_ZERO IEEE_OVERFLOW_FLAG IEEE_UNDERFLOW_FLAG
