
     Program PWSCF v.7.3.1 starts on 18Mar2025 at  8:55:37 

     This program is part of the open-source Quantum ESPRESSO suite
     for quantum simulation of materials; please cite
         "P. Giannozzi et al., J. Phys.:Condens. Matter 21 395502 (2009);
         "P. Giannozzi et al., J. Phys.:Condens. Matter 29 465901 (2017);
         "P. Giannozzi et al., J. Chem. Phys. 152 154105 (2020);
          URL http://www.quantum-espresso.org", 
     in publications or presentations arising from this work. More details at
     http://www.quantum-espresso.org/quote

     Parallel version (MPI), running on     1 processors

     MPI processes distributed on     1 nodes
     0 MiB available memory on the printing compute node when the environment starts

     Reading input from Li_config_5.in

     Current dimensions of program PWSCF are:
     Max number of different atomic species (ntypx) = 10
     Max number of k-points (npk) =  40000
     Max angular momentum in pseudopotentials (lmaxx) =  4

     Subspace diagonalization in iterative solution of the eigenvalue problem:
     a serial algorithm will be used


     G-vector sticks info
     --------------------
     sticks:   dense  smooth     PW     G-vecs:    dense   smooth      PW
     Sum         739     599    181                12839     9189    1601

     Using Slab Decomposition



     bravais-lattice index     =            3
     lattice parameter (alat)  =       6.6312  a.u.
     unit-cell volume          =     145.7933 (a.u.)^3
     number of atoms/cell      =            1
     number of atomic types    =            1
     number of electrons       =         3.00
     number of Kohn-Sham states=            6
     kinetic-energy cutoff     =      60.0000  Ry
     charge density cutoff     =     300.0000  Ry
     scf convergence threshold =      1.0E-08
     mixing beta               =       0.7000
     number of iterations used =            8  plain     mixing
     Exchange-correlation= SLA  PW   PBX  PBC
                           (   1   4   3   4   0   0   0)

     celldm(1)=   6.631155  celldm(2)=   0.000000  celldm(3)=   0.000000
     celldm(4)=   0.000000  celldm(5)=   0.000000  celldm(6)=   0.000000

     crystal axes: (cart. coord. in units of alat)
               a(1) = (   0.500000   0.500000   0.500000 )  
               a(2) = (  -0.500000   0.500000   0.500000 )  
               a(3) = (  -0.500000  -0.500000   0.500000 )  

     reciprocal axes: (cart. coord. in units 2 pi/alat)
               b(1) = (  1.000000  0.000000  1.000000 )  
               b(2) = ( -1.000000  1.000000  0.000000 )  
               b(3) = (  0.000000 -1.000000  1.000000 )  


     PseudoPot. # 1 for Li read from file:
     ../pseudopotentials/Li.pbe-s-kjpaw_psl.1.0.0.UPF
     MD5 check sum: d3662511b3860c829f7212fdb89d6128
     Pseudo is Projector augmented-wave, Zval =  3.0
     Generated using &quot;atomic&quot; code by A. Dal Corso  v.6.3
     Shape of augmentation charge: PSQ
     Using radial grid of 1017 points,  4 beta functions with: 
                l(1) =   0
                l(2) =   0
                l(3) =   1
                l(4) =   1
     Q(r) pseudized with 0 coefficients 


     atomic species   valence    mass     pseudopotential
     Li                3.00     6.94000     Li( 1.00)

     No symmetry found



   Cartesian axes

     site n.     atom                  positions (alat units)
         1        Li     tau(   1) = (  -0.0006150  -0.0019530  -0.0005880  )

     number of k points=   260  Gaussian smearing, width (Ry)=  0.0100

     Number of k-points >= 100: set verbosity='high' to print them.

     Dense  grid:    12839 G-vectors     FFT dimensions: (  32,  32,  32)

     Smooth grid:     9189 G-vectors     FFT dimensions: (  30,  30,  30)

     Estimated max dynamical RAM per process >      45.23 MB

     Initial potential from superposition of free atoms

     starting charge       2.9954, renormalised to       3.0000
     Starting wfcs are    5 randomized atomic wfcs +    1 random wfcs
     Checking if some PAW data can be deallocated... 

     total cpu time spent up to now is        0.7 secs

     Self-consistent Calculation

     iteration #  1     ecut=    60.00 Ry     beta= 0.70
     Davidson diagonalization with overlap
     ethr =  1.00E-02,  avg # of iterations =  5.5

     Threshold (ethr) on eigenvalues was too large:
     Diagonalizing with lowered threshold

     Davidson diagonalization with overlap
     ethr =  1.19E-05,  avg # of iterations =  5.6

     total cpu time spent up to now is        5.4 secs

     total energy              =     -15.04106905 Ry
     estimated scf accuracy    <       0.00031843 Ry

     iteration #  2     ecut=    60.00 Ry     beta= 0.70
     Davidson diagonalization with overlap
     ethr =  1.06E-05,  avg # of iterations =  1.0

     total cpu time spent up to now is        6.8 secs

     total energy              =     -15.04107782 Ry
     estimated scf accuracy    <       0.00001966 Ry

     iteration #  3     ecut=    60.00 Ry     beta= 0.70
     Davidson diagonalization with overlap
     ethr =  6.55E-07,  avg # of iterations =  2.3

     total cpu time spent up to now is        8.4 secs

     total energy              =     -15.04108040 Ry
     estimated scf accuracy    <       0.00000042 Ry

     iteration #  4     ecut=    60.00 Ry     beta= 0.70
     Davidson diagonalization with overlap
     ethr =  1.41E-08,  avg # of iterations =  1.1

     total cpu time spent up to now is        9.8 secs

     total energy              =     -15.04108043 Ry
     estimated scf accuracy    <       0.00000001 Ry

     iteration #  5     ecut=    60.00 Ry     beta= 0.70
     Davidson diagonalization with overlap
     ethr =  3.37E-10,  avg # of iterations =  2.1

     total cpu time spent up to now is       11.3 secs

     End of self-consistent calculation

     Number of k-points >= 100: set verbosity='high' to print the bands.

     the Fermi energy is     0.7668 ev

!    total energy              =     -15.04108043 Ry
     total all-electron energy =       -15.041092 Ry
     estimated scf accuracy    <          1.5E-10 Ry
     smearing contrib. (-TS)   =      -0.00064871 Ry
     internal energy E=F+TS    =     -15.04043172 Ry

     The total energy is F=E-TS. E is the sum of the following terms:
     one-electron contribution =     -10.73110996 Ry
     hartree contribution      =       4.13906667 Ry
     xc contribution           =      -3.59180154 Ry
     ewald contribution        =      -4.93927544 Ry
     one-center paw contrib.   =       0.08268856 Ry

     convergence has been achieved in   5 iterations

     Forces acting on atoms (cartesian axes, Ry/au):

     atom    1 type  1   force =     0.00000000    0.00000000    0.00000000

     Total force =     0.000000     Total SCF correction =     0.000007


     Computing stress (Cartesian axis) and pressure

          total   stress  (Ry/bohr**3)                   (kbar)     P=      -12.80
  -0.00008699   0.00000000   0.00000000          -12.80        0.00        0.00
   0.00000000  -0.00008699   0.00000000            0.00      -12.80        0.00
   0.00000000   0.00000000  -0.00008699            0.00        0.00      -12.80


     Writing all to output data dir ./tmp/Li_config_5.save/ :
     XML data file, charge density, pseudopotentials, collected wavefunctions

     init_run     :      0.68s CPU      0.70s WALL (       1 calls)
     electrons    :     10.11s CPU     10.57s WALL (       1 calls)
     forces       :      0.06s CPU      0.08s WALL (       1 calls)
     stress       :      0.35s CPU      0.37s WALL (       1 calls)

     Called by init_run:
     wfcinit      :      0.54s CPU      0.57s WALL (       1 calls)
     potinit      :      0.03s CPU      0.03s WALL (       1 calls)
     hinit0       :      0.08s CPU      0.08s WALL (       1 calls)

     Called by electrons:
     c_bands      :      8.47s CPU      8.88s WALL (       6 calls)
     sum_band     :      1.54s CPU      1.57s WALL (       6 calls)
     v_of_rho     :      0.04s CPU      0.04s WALL (       6 calls)
     newd         :      0.02s CPU      0.02s WALL (       6 calls)
     PAW_pot      :      0.06s CPU      0.07s WALL (       6 calls)
     mix_rho      :      0.00s CPU      0.00s WALL (       6 calls)

     Called by c_bands:
     init_us_2    :      0.26s CPU      0.26s WALL (    3900 calls)
     cegterg      :      8.28s CPU      8.67s WALL (    1560 calls)

     Called by *egterg:
     cdiaghg      :      0.14s CPU      0.14s WALL (    5848 calls)
     h_psi        :      7.64s CPU      7.83s WALL (    6368 calls)
     s_psi        :      0.13s CPU      0.20s WALL (    6368 calls)
     g_psi        :      0.02s CPU      0.02s WALL (    4548 calls)

     Called by h_psi:
     h_psi:calbec :      0.15s CPU      0.22s WALL (    6368 calls)
     vloc_psi     :      7.34s CPU      7.42s WALL (    6368 calls)
     add_vuspsi   :      0.13s CPU      0.16s WALL (    6368 calls)

     General routines
     calbec       :      0.23s CPU      0.34s WALL (    9228 calls)
     fft          :      0.03s CPU      0.03s WALL (      85 calls)
     ffts         :      0.00s CPU      0.00s WALL (      12 calls)
     fftw         :      7.78s CPU      7.86s WALL (   61256 calls)
     interpolate  :      0.01s CPU      0.01s WALL (       6 calls)

     Parallel routines

     PWSCF        :     11.25s CPU     11.89s WALL


   This run was terminated on:   8:55:48  18Mar2025            

=------------------------------------------------------------------------------=
   JOB DONE.
=------------------------------------------------------------------------------=
Note: The following floating-point exceptions are signalling: IEEE_INVALID_FLAG IEEE_DIVIDE_BY_ZERO IEEE_OVERFLOW_FLAG IEEE_UNDERFLOW_FLAG
