
     Program PWSCF v.7.3.1 starts on 18Mar2025 at 16: 3:24 

     This program is part of the open-source Quantum ESPRESSO suite
     for quantum simulation of materials; please cite
         "P. Giannozzi et al., J. Phys.:Condens. Matter 21 395502 (2009);
         "P. Giannozzi et al., J. Phys.:Condens. Matter 29 465901 (2017);
         "P. Giannozzi et al., J. Chem. Phys. 152 154105 (2020);
          URL http://www.quantum-espresso.org", 
     in publications or presentations arising from this work. More details at
     http://www.quantum-espresso.org/quote

     Parallel version (MPI), running on     1 processors

     MPI processes distributed on     1 nodes
     0 MiB available memory on the printing compute node when the environment starts

     Reading input from qe_outputs_train_set/Li_preselected_2.in

     Current dimensions of program PWSCF are:
     Max number of different atomic species (ntypx) = 10
     Max number of k-points (npk) =  40000
     Max angular momentum in pseudopotentials (lmaxx) =  4

     Subspace diagonalization in iterative solution of the eigenvalue problem:
     a serial algorithm will be used


     G-vector sticks info
     --------------------
     sticks:   dense  smooth     PW     G-vecs:    dense   smooth      PW
     Sum         293     233     89                 3743     2601     587

     Using Slab Decomposition



     bravais-lattice index     =            1
     lattice parameter (alat)  =       3.4749  a.u.
     unit-cell volume          =      41.9592 (a.u.)^3
     number of atoms/cell      =            2
     number of atomic types    =            1
     number of electrons       =         6.00
     number of Kohn-Sham states=            7
     kinetic-energy cutoff     =      60.0000  Ry
     charge density cutoff     =     300.0000  Ry
     scf convergence threshold =      1.0E-08
     mixing beta               =       0.7000
     number of iterations used =            8  plain     mixing
     Exchange-correlation= SLA  PW   PBX  PBC
                           (   1   4   3   4   0   0   0)

     celldm(1)=   3.474900  celldm(2)=   0.000000  celldm(3)=   0.000000
     celldm(4)=   0.000000  celldm(5)=   0.000000  celldm(6)=   0.000000

     crystal axes: (cart. coord. in units of alat)
               a(1) = (   1.000000   0.000000   0.000000 )  
               a(2) = (   0.000000   1.000000   0.000000 )  
               a(3) = (   0.000000   0.000000   1.000000 )  

     reciprocal axes: (cart. coord. in units 2 pi/alat)
               b(1) = (  1.000000  0.000000  0.000000 )  
               b(2) = (  0.000000  1.000000  0.000000 )  
               b(3) = (  0.000000  0.000000  1.000000 )  


     PseudoPot. # 1 for Li read from file:
     ../pseudopotentials/Li.pbe-s-kjpaw_psl.1.0.0.UPF
     MD5 check sum: d3662511b3860c829f7212fdb89d6128
     Pseudo is Projector augmented-wave, Zval =  3.0
     Generated using &quot;atomic&quot; code by A. Dal Corso  v.6.3
     Shape of augmentation charge: PSQ
     Using radial grid of 1017 points,  4 beta functions with: 
                l(1) =   0
                l(2) =   0
                l(3) =   1
                l(4) =   1
     Q(r) pseudized with 0 coefficients 


     atomic species   valence    mass     pseudopotential
     Li                3.00     6.94000     Li( 1.00)

      6 Sym. Ops. (no inversion) found



   Cartesian axes

     site n.     atom                  positions (alat units)
         1        Li     tau(   1) = (   0.0000000   0.0000000   0.0000000  )
         2        Li     tau(   2) = (   0.5050510   0.5050510   0.5050510  )

     number of k points=    65  Gaussian smearing, width (Ry)=  0.0100
                       cart. coord. in units 2pi/alat
        k(    1) = (   0.0000000   0.0000000   0.0000000), wk =   0.0039062
        k(    2) = (   0.0000000   0.0000000   0.1250000), wk =   0.0234375
        k(    3) = (   0.0000000   0.0000000   0.2500000), wk =   0.0234375
        k(    4) = (   0.0000000   0.0000000   0.3750000), wk =   0.0234375
        k(    5) = (   0.0000000   0.0000000  -0.5000000), wk =   0.0117188
        k(    6) = (   0.0000000   0.1250000   0.1250000), wk =   0.0234375
        k(    7) = (   0.0000000   0.1250000   0.2500000), wk =   0.0468750
        k(    8) = (   0.0000000   0.1250000   0.3750000), wk =   0.0468750
        k(    9) = (   0.0000000   0.1250000  -0.5000000), wk =   0.0468750
        k(   10) = (   0.0000000   0.2500000   0.2500000), wk =   0.0234375
        k(   11) = (   0.0000000   0.2500000   0.3750000), wk =   0.0468750
        k(   12) = (   0.0000000   0.2500000  -0.5000000), wk =   0.0468750
        k(   13) = (   0.0000000   0.3750000   0.3750000), wk =   0.0234375
        k(   14) = (   0.0000000   0.3750000  -0.5000000), wk =   0.0468750
        k(   15) = (   0.0000000  -0.5000000  -0.5000000), wk =   0.0117188
        k(   16) = (   0.1250000   0.1250000   0.1250000), wk =   0.0078125
        k(   17) = (   0.1250000   0.1250000   0.2500000), wk =   0.0234375
        k(   18) = (   0.1250000   0.1250000   0.3750000), wk =   0.0234375
        k(   19) = (   0.1250000   0.1250000  -0.5000000), wk =   0.0234375
        k(   20) = (   0.1250000   0.2500000   0.2500000), wk =   0.0234375
        k(   21) = (   0.1250000   0.2500000   0.3750000), wk =   0.0468750
        k(   22) = (   0.1250000   0.2500000  -0.5000000), wk =   0.0468750
        k(   23) = (   0.1250000   0.3750000   0.3750000), wk =   0.0234375
        k(   24) = (   0.1250000   0.3750000  -0.5000000), wk =   0.0468750
        k(   25) = (   0.1250000  -0.5000000  -0.5000000), wk =   0.0234375
        k(   26) = (   0.2500000   0.2500000   0.2500000), wk =   0.0078125
        k(   27) = (   0.2500000   0.2500000   0.3750000), wk =   0.0234375
        k(   28) = (   0.2500000   0.2500000  -0.5000000), wk =   0.0234375
        k(   29) = (   0.2500000   0.3750000   0.3750000), wk =   0.0234375
        k(   30) = (   0.2500000   0.3750000  -0.5000000), wk =   0.0468750
        k(   31) = (   0.2500000  -0.5000000  -0.5000000), wk =   0.0234375
        k(   32) = (   0.3750000   0.3750000   0.3750000), wk =   0.0078125
        k(   33) = (   0.3750000   0.3750000  -0.5000000), wk =   0.0234375
        k(   34) = (   0.3750000  -0.5000000  -0.5000000), wk =   0.0234375
        k(   35) = (  -0.5000000  -0.5000000  -0.5000000), wk =   0.0039062
        k(   36) = (  -0.1250000   0.0000000   0.1250000), wk =   0.0234375
        k(   37) = (  -0.1250000   0.0000000   0.2500000), wk =   0.0468750
        k(   38) = (  -0.1250000   0.0000000   0.3750000), wk =   0.0468750
        k(   39) = (  -0.2500000   0.0000000   0.2500000), wk =   0.0234375
        k(   40) = (  -0.2500000   0.0000000   0.3750000), wk =   0.0468750
        k(   41) = (  -0.3750000   0.0000000   0.3750000), wk =   0.0234375
        k(   42) = (   0.1250000  -0.1250000   0.1250000), wk =   0.0234375
        k(   43) = (   0.1250000  -0.1250000   0.2500000), wk =   0.0468750
        k(   44) = (  -0.2500000   0.1250000   0.1250000), wk =   0.0234375
        k(   45) = (   0.1250000  -0.1250000   0.3750000), wk =   0.0468750
        k(   46) = (  -0.3750000   0.1250000   0.1250000), wk =   0.0234375
        k(   47) = (   0.1250000  -0.1250000  -0.5000000), wk =   0.0234375
        k(   48) = (   0.2500000  -0.1250000   0.2500000), wk =   0.0234375
        k(   49) = (  -0.2500000   0.1250000   0.2500000), wk =   0.0468750
        k(   50) = (   0.2500000  -0.1250000   0.3750000), wk =   0.0468750
        k(   51) = (  -0.2500000   0.1250000   0.3750000), wk =   0.0468750
        k(   52) = (  -0.3750000   0.2500000   0.1250000), wk =   0.0468750
        k(   53) = (   0.2500000  -0.1250000  -0.5000000), wk =   0.0468750
        k(   54) = (   0.3750000  -0.1250000   0.3750000), wk =   0.0234375
        k(   55) = (  -0.3750000   0.1250000   0.3750000), wk =   0.0468750
        k(   56) = (   0.3750000  -0.1250000  -0.5000000), wk =   0.0468750
        k(   57) = (   0.2500000  -0.2500000   0.2500000), wk =   0.0234375
        k(   58) = (   0.2500000  -0.2500000   0.3750000), wk =   0.0468750
        k(   59) = (  -0.3750000   0.2500000   0.2500000), wk =   0.0234375
        k(   60) = (   0.2500000  -0.2500000  -0.5000000), wk =   0.0234375
        k(   61) = (   0.3750000  -0.2500000   0.3750000), wk =   0.0234375
        k(   62) = (  -0.3750000   0.2500000   0.3750000), wk =   0.0468750
        k(   63) = (   0.3750000  -0.2500000  -0.5000000), wk =   0.0468750
        k(   64) = (   0.3750000  -0.3750000   0.3750000), wk =   0.0234375
        k(   65) = (   0.3750000  -0.3750000  -0.5000000), wk =   0.0234375

     Dense  grid:     3743 G-vectors     FFT dimensions: (  20,  20,  20)

     Smooth grid:     2601 G-vectors     FFT dimensions: (  18,  18,  18)

     Estimated max dynamical RAM per process >       7.75 MB

     Initial potential from superposition of free atoms

     starting charge       5.9908, renormalised to       6.0000
     Starting wfcs are   10 randomized atomic wfcs
     Checking if some PAW data can be deallocated... 

     total cpu time spent up to now is        0.2 secs

     Self-consistent Calculation

     iteration #  1     ecut=    60.00 Ry     beta= 0.70
     Davidson diagonalization with overlap
     ethr =  1.00E-02,  avg # of iterations =  5.1

     Threshold (ethr) on eigenvalues was too large:
     Diagonalizing with lowered threshold

     Davidson diagonalization with overlap
     ethr =  1.09E-04,  avg # of iterations =  2.2

     total cpu time spent up to now is        0.5 secs

     total energy              =     -28.98407876 Ry
     estimated scf accuracy    <       0.00662020 Ry

     iteration #  2     ecut=    60.00 Ry     beta= 0.70
     Davidson diagonalization with overlap
     ethr =  1.10E-04,  avg # of iterations =  1.1

     total cpu time spent up to now is        0.6 secs

     total energy              =     -28.98447452 Ry
     estimated scf accuracy    <       0.00041863 Ry

     iteration #  3     ecut=    60.00 Ry     beta= 0.70
     Davidson diagonalization with overlap
     ethr =  6.98E-06,  avg # of iterations =  3.0

     total cpu time spent up to now is        0.8 secs

     total energy              =     -28.98451624 Ry
     estimated scf accuracy    <       0.00001066 Ry

     iteration #  4     ecut=    60.00 Ry     beta= 0.70
     Davidson diagonalization with overlap
     ethr =  1.78E-07,  avg # of iterations =  1.6

     total cpu time spent up to now is        0.9 secs

     total energy              =     -28.98451780 Ry
     estimated scf accuracy    <       0.00000026 Ry

     iteration #  5     ecut=    60.00 Ry     beta= 0.70
     Davidson diagonalization with overlap
     ethr =  4.36E-09,  avg # of iterations =  2.1

     total cpu time spent up to now is        1.0 secs

     End of self-consistent calculation

          k = 0.0000 0.0000 0.0000 (   341 PWs)   bands (ev):

   -36.1087 -29.6217  18.0428  33.1934  33.1934  33.2026  38.4639

          k = 0.0000 0.0000 0.1250 (   341 PWs)   bands (ev):

   -35.8151 -29.7869  17.7508  27.4742  33.8755  33.8806  39.1586

          k = 0.0000 0.0000 0.2500 (   329 PWs)   bands (ev):

   -34.9877 -30.3053  16.9306  21.7820  35.9192  35.9218  41.2427

          k = 0.0000 0.0000 0.3750 (   328 PWs)   bands (ev):

   -33.7813 -31.2070  16.2084  18.1264  39.3150  39.3150  44.7156

          k = 0.0000 0.0000-0.5000 (   336 PWs)   bands (ev):

   -32.4983 -32.3651  16.1910  16.5748  43.9360  43.9375  44.1450

          k = 0.0000 0.1250 0.1250 (   332 PWs)   bands (ev):

   -35.5325 -29.9284  17.4492  25.8167  31.0392  34.5587  44.4157

          k = 0.0000 0.1250 0.2500 (   328 PWs)   bands (ev):

   -34.7389 -30.3827  16.5915  21.2086  32.1333  36.5976  47.6049

          k = 0.0000 0.1250 0.3750 (   328 PWs)   bands (ev):

   -33.5904 -31.1937  15.8864  17.7383  35.3127  39.9834  45.7735

          k = 0.0000 0.1250-0.5000 (   334 PWs)   bands (ev):

   -32.3845 -32.2603  15.8759  16.2269  39.8164  39.9935  44.5854

          k = 0.0000 0.2500 0.2500 (   332 PWs)   bands (ev):

   -34.0484 -30.6560  15.7611  19.0326  30.7045  38.6232  46.8666

          k = 0.0000 0.2500 0.3750 (   327 PWs)   bands (ev):

   -33.0762 -31.2058  15.0429  16.5001  32.6274  41.2838  41.9860

          k = 0.0000 0.2500-0.5000 (   342 PWs)   bands (ev):

   -32.1016 -32.0042  14.9760  15.2366  36.2793  36.4433  46.4925

          k = 0.0000 0.3750 0.3750 (   336 PWs)   bands (ev):

   -32.4004 -31.3669  14.1922  14.9152  32.8591  37.8449  45.2391

          k = 0.0000 0.3750-0.5000 (   332 PWs)   bands (ev):

   -31.8020 -31.7479  13.9568  14.0922  34.8936  35.0093  49.5999

          k = 0.0000-0.5000-0.5000 (   316 PWs)   bands (ev):

   -31.6588 -31.6555  13.5392  13.5426  34.7202  34.7315  51.7042

          k = 0.1250 0.1250 0.1250 (   329 PWs)   bands (ev):

   -35.2609 -30.0498  17.1178  26.5053  26.5053  36.7528  49.2876

          k = 0.1250 0.1250 0.2500 (   329 PWs)   bands (ev):

   -34.4999 -30.4473  16.3132  21.2380  28.5699  39.1850  50.3765

          k = 0.1250 0.1250 0.3750 (   326 PWs)   bands (ev):

   -33.4071 -31.1760  15.6634  17.6637  32.0065  42.4656  42.9525

          k = 0.1250 0.1250-0.5000 (   334 PWs)   bands (ev):

   -32.2741 -32.1583  15.7425  16.0683  36.7202  36.8953  46.6461

          k = 0.1250 0.2500 0.2500 (   327 PWs)   bands (ev):

   -33.8386 -30.6829  15.6522  19.7228  26.9184  41.9159  45.4119

          k = 0.1250 0.2500 0.3750 (   333 PWs)   bands (ev):

   -32.9148 -31.1752  15.1074  16.9871  29.3275  39.2344  44.9874

          k = 0.1250 0.2500-0.5000 (   338 PWs)   bands (ev):

   -32.0001 -31.9094  15.2522  15.4994  33.5635  33.7328  48.4305

          k = 0.1250 0.3750 0.3750 (   334 PWs)   bands (ev):

   -32.2723 -31.3118  14.5544  15.6061  29.8329  35.8805  47.3015

          k = 0.1250 0.3750-0.5000 (   330 PWs)   bands (ev):

   -31.7105 -31.6602  14.5479  14.6775  32.4235  32.5521  48.1257

          k = 0.1250-0.5000-0.5000 (   332 PWs)   bands (ev):

   -31.5728 -31.5698  14.2302  14.2336  32.3800  32.3895  47.1995

          k = 0.2500 0.2500 0.2500 (   326 PWs)   bands (ev):

   -33.2654 -30.8087  15.3637  21.7927  21.7927  43.7614  43.7614

          k = 0.2500 0.2500 0.3750 (   333 PWs)   bands (ev):

   -32.4860 -31.1321  15.2620  18.0328  25.2398  36.2432  43.8768

          k = 0.2500 0.2500-0.5000 (   324 PWs)   bands (ev):

   -31.7485 -31.6777  15.8555  16.0546  29.9753  30.1457  45.5039

          k = 0.2500 0.3750 0.3750 (   327 PWs)   bands (ev):

   -31.9402 -31.1941  15.5386  17.6782  25.0156  33.0510  39.7022

          k = 0.2500 0.3750-0.5000 (   324 PWs)   bands (ev):

   -31.4847 -31.4455  16.2333  16.3408  28.4464  28.5945  40.5007

          k = 0.2500-0.5000-0.5000 (   320 PWs)   bands (ev):

   -31.3615 -31.3591  16.3030  16.3059  28.5000  28.5078  38.3438

          k = 0.3750 0.3750 0.3750 (   317 PWs)   bands (ev):

   -31.5417 -31.1316  16.8757  21.1296  21.1296  32.1549  32.1549

          k = 0.3750 0.3750-0.5000 (   326 PWs)   bands (ev):

   -31.2504 -31.2288  18.5259  18.5783  25.8734  26.0425  33.9307

          k = 0.3750-0.5000-0.5000 (   324 PWs)   bands (ev):

   -31.1451 -31.1438  19.7556  19.7574  25.6120  25.6197  30.7876

          k =-0.5000-0.5000-0.5000 (   304 PWs)   bands (ev):

   -31.0533 -31.0532  24.4200  24.5018  24.5025  24.6706  24.6742

          k =-0.1250 0.0000 0.1250 (   332 PWs)   bands (ev):

   -35.5325 -29.9283  17.4468  25.8252  31.0333  34.5586  44.4155

          k =-0.1250 0.0000 0.2500 (   328 PWs)   bands (ev):

   -34.7390 -30.3826  16.5857  21.2174  32.1295  36.5976  47.6052

          k =-0.1250 0.0000 0.3750 (   328 PWs)   bands (ev):

   -33.5905 -31.1935  15.8781  17.7480  35.3099  39.9834  45.7767

          k =-0.2500 0.0000 0.2500 (   332 PWs)   bands (ev):

   -34.0485 -30.6558  15.7500  19.0480  30.6985  38.6232  46.8713

          k =-0.2500 0.0000 0.3750 (   327 PWs)   bands (ev):

   -33.0765 -31.2055  15.0268  16.5186  32.6219  41.2888  41.9860

          k =-0.3750 0.0000 0.3750 (   336 PWs)   bands (ev):

   -32.4007 -31.3665  14.1696  14.9395  32.8522  37.8517  45.2389

          k = 0.1250-0.1250 0.1250 (   329 PWs)   bands (ev):

   -35.2610 -30.0496  17.1143  26.5053  26.5145  36.7461  49.2872

          k = 0.1250-0.1250 0.2500 (   329 PWs)   bands (ev):

   -34.5000 -30.4471  16.3092  21.2423  28.5736  39.1796  50.3837

          k =-0.2500 0.1250 0.1250 (   329 PWs)   bands (ev):

   -34.5001 -30.4470  16.3055  21.2490  28.5699  39.1793  50.3838

          k = 0.1250-0.1250 0.3750 (   326 PWs)   bands (ev):

   -33.4072 -31.1758  15.6582  17.6697  32.0076  42.4527  42.9608

          k =-0.3750 0.1250 0.1250 (   326 PWs)   bands (ev):

   -33.4073 -31.1757  15.6521  17.6767  32.0065  42.4597  42.9529

          k = 0.1250-0.1250-0.5000 (   334 PWs)   bands (ev):

   -32.2742 -32.1583  15.7426  16.0684  36.7192  36.8943  46.6479

          k = 0.2500-0.1250 0.2500 (   327 PWs)   bands (ev):

   -33.8387 -30.6828  15.6503  19.7228  26.9240  41.9081  45.4119

          k =-0.2500 0.1250 0.2500 (   327 PWs)   bands (ev):

   -33.8388 -30.6826  15.6439  19.7343  26.9177  41.9090  45.4143

          k = 0.2500-0.1250 0.3750 (   333 PWs)   bands (ev):

   -32.9149 -31.1751  15.1057  16.9885  29.3301  39.2302  44.9853

          k =-0.2500 0.1250 0.3750 (   333 PWs)   bands (ev):

   -32.9150 -31.1749  15.0970  16.9994  29.3258  39.2342  44.9845

          k =-0.3750 0.2500 0.1250 (   333 PWs)   bands (ev):

   -32.9151 -31.1748  15.0948  17.0017  29.3261  39.2358  44.9792

          k = 0.2500-0.1250-0.5000 (   338 PWs)   bands (ev):

   -32.0001 -31.9094  15.2524  15.4995  33.5626  33.7320  48.4150

          k = 0.3750-0.1250 0.3750 (   334 PWs)   bands (ev):

   -32.2724 -31.3116  14.5542  15.6061  29.8346  35.8776  47.3003

          k =-0.3750 0.1250 0.3750 (   334 PWs)   bands (ev):

   -32.2727 -31.3114  14.5397  15.6224  29.8292  35.8839  47.2858

          k = 0.3750-0.1250-0.5000 (   330 PWs)   bands (ev):

   -31.7105 -31.6601  14.5480  14.6776  32.4229  32.5517  48.1272

          k = 0.2500-0.2500 0.2500 (   326 PWs)   bands (ev):

   -33.2657 -30.8084  15.3594  21.7927  21.8000  43.7448  43.7615

          k = 0.2500-0.2500 0.3750 (   333 PWs)   bands (ev):

   -32.4863 -31.1318  15.2587  18.0364  25.2413  36.2403  43.8743

          k =-0.3750 0.2500 0.2500 (   333 PWs)   bands (ev):

   -32.4864 -31.1317  15.2551  18.0413  25.2398  36.2433  43.8669

          k = 0.2500-0.2500-0.5000 (   324 PWs)   bands (ev):

   -31.7485 -31.6777  15.8558  16.0548  29.9744  30.1448  45.5054

          k = 0.3750-0.2500 0.3750 (   327 PWs)   bands (ev):

   -31.9404 -31.1939  15.5382  17.6782  25.0178  33.0474  39.7022

          k =-0.3750 0.2500 0.3750 (   327 PWs)   bands (ev):

   -31.9405 -31.1937  15.5334  17.6850  25.0145  33.0516  39.6974

          k = 0.3750-0.2500-0.5000 (   324 PWs)   bands (ev):

   -31.4847 -31.4455  16.2335  16.3410  28.4456  28.5939  40.5015

          k = 0.3750-0.3750 0.3750 (   317 PWs)   bands (ev):

   -31.5419 -31.1313  16.8746  21.1296  21.1320  32.1514  32.1549

          k = 0.3750-0.3750-0.5000 (   326 PWs)   bands (ev):

   -31.2504 -31.2288  18.5263  18.5787  25.8725  26.0416  33.9314

     the Fermi energy is    16.1429 ev

!    total energy              =     -28.98451787 Ry
     total all-electron energy =       -28.984541 Ry
     estimated scf accuracy    <          6.6E-09 Ry
     smearing contrib. (-TS)   =      -0.00066155 Ry
     internal energy E=F+TS    =     -28.98385632 Ry

     The total energy is F=E-TS. E is the sum of the following terms:
     one-electron contribution =      -7.15767902 Ry
     hartree contribution      =       4.88625959 Ry
     xc contribution           =      -8.03491603 Ry
     ewald contribution        =     -18.85041764 Ry
     one-center paw contrib.   =       0.17289678 Ry

     convergence has been achieved in   5 iterations

     Forces acting on atoms (cartesian axes, Ry/au):

     atom    1 type  1   force =    -0.02446510   -0.02446510   -0.02446510
     atom    2 type  1   force =     0.02446510    0.02446510    0.02446510

     Total force =     0.059927     Total SCF correction =     0.000003


     Computing stress (Cartesian axis) and pressure

          total   stress  (Ry/bohr**3)                   (kbar)     P=     5129.90
   0.03487234   0.00001543   0.00001543         5129.90        2.27        2.27
   0.00001543   0.03487234   0.00001543            2.27     5129.90        2.27
   0.00001543   0.00001543   0.03487234            2.27        2.27     5129.90


     Writing all to output data dir ./tmp/Li_preselected_2.save/ :
     XML data file, charge density, pseudopotentials, collected wavefunctions

     init_run     :      0.17s CPU      0.17s WALL (       1 calls)
     electrons    :      0.82s CPU      0.85s WALL (       1 calls)
     forces       :      0.01s CPU      0.01s WALL (       1 calls)
     stress       :      0.04s CPU      0.04s WALL (       1 calls)

     Called by init_run:
     wfcinit      :      0.06s CPU      0.06s WALL (       1 calls)
     potinit      :      0.03s CPU      0.03s WALL (       1 calls)
     hinit0       :      0.08s CPU      0.08s WALL (       1 calls)

     Called by electrons:
     c_bands      :      0.59s CPU      0.62s WALL (       6 calls)
     sum_band     :      0.11s CPU      0.11s WALL (       6 calls)
     v_of_rho     :      0.01s CPU      0.01s WALL (       6 calls)
     newd         :      0.00s CPU      0.00s WALL (       6 calls)
     PAW_pot      :      0.13s CPU      0.13s WALL (       6 calls)
     mix_rho      :      0.00s CPU      0.00s WALL (       6 calls)

     Called by c_bands:
     init_us_2    :      0.03s CPU      0.03s WALL (     975 calls)
     cegterg      :      0.56s CPU      0.59s WALL (     390 calls)

     Called by *egterg:
     cdiaghg      :      0.04s CPU      0.04s WALL (    1302 calls)
     h_psi        :      0.48s CPU      0.49s WALL (    1432 calls)
     s_psi        :      0.02s CPU      0.02s WALL (    1432 calls)
     g_psi        :      0.00s CPU      0.00s WALL (     977 calls)

     Called by h_psi:
     h_psi:calbec :      0.01s CPU      0.02s WALL (    1432 calls)
     vloc_psi     :      0.44s CPU      0.45s WALL (    1432 calls)
     add_vuspsi   :      0.02s CPU      0.02s WALL (    1432 calls)

     General routines
     calbec       :      0.02s CPU      0.03s WALL (    2147 calls)
     fft          :      0.00s CPU      0.00s WALL (      85 calls)
     ffts         :      0.00s CPU      0.00s WALL (      12 calls)
     fftw         :      0.46s CPU      0.46s WALL (   17360 calls)
     interpolate  :      0.00s CPU      0.00s WALL (       6 calls)

     Parallel routines

     PWSCF        :      1.07s CPU      1.13s WALL


   This run was terminated on:  16: 3:25  18Mar2025            

=------------------------------------------------------------------------------=
   JOB DONE.
=------------------------------------------------------------------------------=
Note: The following floating-point exceptions are signalling: IEEE_INVALID_FLAG IEEE_DIVIDE_BY_ZERO IEEE_OVERFLOW_FLAG IEEE_UNDERFLOW_FLAG
