
     Program PWSCF v.7.3.1 starts on 18Mar2025 at 16: 3: 7 

     This program is part of the open-source Quantum ESPRESSO suite
     for quantum simulation of materials; please cite
         "P. Giannozzi et al., J. Phys.:Condens. Matter 21 395502 (2009);
         "P. Giannozzi et al., J. Phys.:Condens. Matter 29 465901 (2017);
         "P. Giannozzi et al., J. Chem. Phys. 152 154105 (2020);
          URL http://www.quantum-espresso.org", 
     in publications or presentations arising from this work. More details at
     http://www.quantum-espresso.org/quote

     Parallel version (MPI), running on     1 processors

     MPI processes distributed on     1 nodes
     0 MiB available memory on the printing compute node when the environment starts

     Reading input from qe_outputs_train_set/Li_preselected_4.in

     Current dimensions of program PWSCF are:
     Max number of different atomic species (ntypx) = 10
     Max number of k-points (npk) =  40000
     Max angular momentum in pseudopotentials (lmaxx) =  4

     Subspace diagonalization in iterative solution of the eigenvalue problem:
     a serial algorithm will be used


     G-vector sticks info
     --------------------
     sticks:   dense  smooth     PW     G-vecs:    dense   smooth      PW
     Sum         293     241     89                 3887     2801     619

     Using Slab Decomposition



     bravais-lattice index     =            1
     lattice parameter (alat)  =       3.5451  a.u.
     unit-cell volume          =      44.5539 (a.u.)^3
     number of atoms/cell      =            2
     number of atomic types    =            1
     number of electrons       =         6.00
     number of Kohn-Sham states=            7
     kinetic-energy cutoff     =      60.0000  Ry
     charge density cutoff     =     300.0000  Ry
     scf convergence threshold =      1.0E-08
     mixing beta               =       0.7000
     number of iterations used =            8  plain     mixing
     Exchange-correlation= SLA  PW   PBX  PBC
                           (   1   4   3   4   0   0   0)

     celldm(1)=   3.545100  celldm(2)=   0.000000  celldm(3)=   0.000000
     celldm(4)=   0.000000  celldm(5)=   0.000000  celldm(6)=   0.000000

     crystal axes: (cart. coord. in units of alat)
               a(1) = (   1.000000   0.000000   0.000000 )  
               a(2) = (   0.000000   1.000000   0.000000 )  
               a(3) = (   0.000000   0.000000   1.000000 )  

     reciprocal axes: (cart. coord. in units 2 pi/alat)
               b(1) = (  1.000000  0.000000  0.000000 )  
               b(2) = (  0.000000  1.000000  0.000000 )  
               b(3) = (  0.000000  0.000000  1.000000 )  


     PseudoPot. # 1 for Li read from file:
     ../pseudopotentials/Li.pbe-s-kjpaw_psl.1.0.0.UPF
     MD5 check sum: d3662511b3860c829f7212fdb89d6128
     Pseudo is Projector augmented-wave, Zval =  3.0
     Generated using &quot;atomic&quot; code by A. Dal Corso  v.6.3
     Shape of augmentation charge: PSQ
     Using radial grid of 1017 points,  4 beta functions with: 
                l(1) =   0
                l(2) =   0
                l(3) =   1
                l(4) =   1
     Q(r) pseudized with 0 coefficients 


     atomic species   valence    mass     pseudopotential
     Li                3.00     6.94000     Li( 1.00)

      6 Sym. Ops. (no inversion) found



   Cartesian axes

     site n.     atom                  positions (alat units)
         1        Li     tau(   1) = (   0.0000000   0.0000000   0.0000000  )
         2        Li     tau(   2) = (   0.4950500   0.4950500   0.4950500  )

     number of k points=    65  Gaussian smearing, width (Ry)=  0.0100
                       cart. coord. in units 2pi/alat
        k(    1) = (   0.0000000   0.0000000   0.0000000), wk =   0.0039062
        k(    2) = (   0.0000000   0.0000000   0.1250000), wk =   0.0234375
        k(    3) = (   0.0000000   0.0000000   0.2500000), wk =   0.0234375
        k(    4) = (   0.0000000   0.0000000   0.3750000), wk =   0.0234375
        k(    5) = (   0.0000000   0.0000000  -0.5000000), wk =   0.0117188
        k(    6) = (   0.0000000   0.1250000   0.1250000), wk =   0.0234375
        k(    7) = (   0.0000000   0.1250000   0.2500000), wk =   0.0468750
        k(    8) = (   0.0000000   0.1250000   0.3750000), wk =   0.0468750
        k(    9) = (   0.0000000   0.1250000  -0.5000000), wk =   0.0468750
        k(   10) = (   0.0000000   0.2500000   0.2500000), wk =   0.0234375
        k(   11) = (   0.0000000   0.2500000   0.3750000), wk =   0.0468750
        k(   12) = (   0.0000000   0.2500000  -0.5000000), wk =   0.0468750
        k(   13) = (   0.0000000   0.3750000   0.3750000), wk =   0.0234375
        k(   14) = (   0.0000000   0.3750000  -0.5000000), wk =   0.0468750
        k(   15) = (   0.0000000  -0.5000000  -0.5000000), wk =   0.0117188
        k(   16) = (   0.1250000   0.1250000   0.1250000), wk =   0.0078125
        k(   17) = (   0.1250000   0.1250000   0.2500000), wk =   0.0234375
        k(   18) = (   0.1250000   0.1250000   0.3750000), wk =   0.0234375
        k(   19) = (   0.1250000   0.1250000  -0.5000000), wk =   0.0234375
        k(   20) = (   0.1250000   0.2500000   0.2500000), wk =   0.0234375
        k(   21) = (   0.1250000   0.2500000   0.3750000), wk =   0.0468750
        k(   22) = (   0.1250000   0.2500000  -0.5000000), wk =   0.0468750
        k(   23) = (   0.1250000   0.3750000   0.3750000), wk =   0.0234375
        k(   24) = (   0.1250000   0.3750000  -0.5000000), wk =   0.0468750
        k(   25) = (   0.1250000  -0.5000000  -0.5000000), wk =   0.0234375
        k(   26) = (   0.2500000   0.2500000   0.2500000), wk =   0.0078125
        k(   27) = (   0.2500000   0.2500000   0.3750000), wk =   0.0234375
        k(   28) = (   0.2500000   0.2500000  -0.5000000), wk =   0.0234375
        k(   29) = (   0.2500000   0.3750000   0.3750000), wk =   0.0234375
        k(   30) = (   0.2500000   0.3750000  -0.5000000), wk =   0.0468750
        k(   31) = (   0.2500000  -0.5000000  -0.5000000), wk =   0.0234375
        k(   32) = (   0.3750000   0.3750000   0.3750000), wk =   0.0078125
        k(   33) = (   0.3750000   0.3750000  -0.5000000), wk =   0.0234375
        k(   34) = (   0.3750000  -0.5000000  -0.5000000), wk =   0.0234375
        k(   35) = (  -0.5000000  -0.5000000  -0.5000000), wk =   0.0039062
        k(   36) = (  -0.1250000   0.0000000   0.1250000), wk =   0.0234375
        k(   37) = (  -0.1250000   0.0000000   0.2500000), wk =   0.0468750
        k(   38) = (  -0.1250000   0.0000000   0.3750000), wk =   0.0468750
        k(   39) = (  -0.2500000   0.0000000   0.2500000), wk =   0.0234375
        k(   40) = (  -0.2500000   0.0000000   0.3750000), wk =   0.0468750
        k(   41) = (  -0.3750000   0.0000000   0.3750000), wk =   0.0234375
        k(   42) = (   0.1250000  -0.1250000   0.1250000), wk =   0.0234375
        k(   43) = (   0.1250000  -0.1250000   0.2500000), wk =   0.0468750
        k(   44) = (  -0.2500000   0.1250000   0.1250000), wk =   0.0234375
        k(   45) = (   0.1250000  -0.1250000   0.3750000), wk =   0.0468750
        k(   46) = (  -0.3750000   0.1250000   0.1250000), wk =   0.0234375
        k(   47) = (   0.1250000  -0.1250000  -0.5000000), wk =   0.0234375
        k(   48) = (   0.2500000  -0.1250000   0.2500000), wk =   0.0234375
        k(   49) = (  -0.2500000   0.1250000   0.2500000), wk =   0.0468750
        k(   50) = (   0.2500000  -0.1250000   0.3750000), wk =   0.0468750
        k(   51) = (  -0.2500000   0.1250000   0.3750000), wk =   0.0468750
        k(   52) = (  -0.3750000   0.2500000   0.1250000), wk =   0.0468750
        k(   53) = (   0.2500000  -0.1250000  -0.5000000), wk =   0.0468750
        k(   54) = (   0.3750000  -0.1250000   0.3750000), wk =   0.0234375
        k(   55) = (  -0.3750000   0.1250000   0.3750000), wk =   0.0468750
        k(   56) = (   0.3750000  -0.1250000  -0.5000000), wk =   0.0468750
        k(   57) = (   0.2500000  -0.2500000   0.2500000), wk =   0.0234375
        k(   58) = (   0.2500000  -0.2500000   0.3750000), wk =   0.0468750
        k(   59) = (  -0.3750000   0.2500000   0.2500000), wk =   0.0234375
        k(   60) = (   0.2500000  -0.2500000  -0.5000000), wk =   0.0234375
        k(   61) = (   0.3750000  -0.2500000   0.3750000), wk =   0.0234375
        k(   62) = (  -0.3750000   0.2500000   0.3750000), wk =   0.0468750
        k(   63) = (   0.3750000  -0.2500000  -0.5000000), wk =   0.0468750
        k(   64) = (   0.3750000  -0.3750000   0.3750000), wk =   0.0234375
        k(   65) = (   0.3750000  -0.3750000  -0.5000000), wk =   0.0234375

     Dense  grid:     3887 G-vectors     FFT dimensions: (  20,  20,  20)

     Smooth grid:     2801 G-vectors     FFT dimensions: (  18,  18,  18)

     Estimated max dynamical RAM per process >       8.07 MB

     Initial potential from superposition of free atoms

     starting charge       5.9908, renormalised to       6.0000
     Starting wfcs are   10 randomized atomic wfcs
     Checking if some PAW data can be deallocated... 

     total cpu time spent up to now is        0.2 secs

     Self-consistent Calculation

     iteration #  1     ecut=    60.00 Ry     beta= 0.70
     Davidson diagonalization with overlap
     ethr =  1.00E-02,  avg # of iterations =  5.1

     Threshold (ethr) on eigenvalues was too large:
     Diagonalizing with lowered threshold

     Davidson diagonalization with overlap
     ethr =  1.00E-04,  avg # of iterations =  2.2

     total cpu time spent up to now is        0.6 secs

     total energy              =     -29.07217490 Ry
     estimated scf accuracy    <       0.00604877 Ry

     iteration #  2     ecut=    60.00 Ry     beta= 0.70
     Davidson diagonalization with overlap
     ethr =  1.01E-04,  avg # of iterations =  1.0

     total cpu time spent up to now is        0.7 secs

     total energy              =     -29.07255703 Ry
     estimated scf accuracy    <       0.00042022 Ry

     iteration #  3     ecut=    60.00 Ry     beta= 0.70
     Davidson diagonalization with overlap
     ethr =  7.00E-06,  avg # of iterations =  2.6

     total cpu time spent up to now is        0.8 secs

     total energy              =     -29.07258824 Ry
     estimated scf accuracy    <       0.00000939 Ry

     iteration #  4     ecut=    60.00 Ry     beta= 0.70
     Davidson diagonalization with overlap
     ethr =  1.56E-07,  avg # of iterations =  2.0

     total cpu time spent up to now is        1.0 secs

     total energy              =     -29.07259014 Ry
     estimated scf accuracy    <       0.00000011 Ry

     iteration #  5     ecut=    60.00 Ry     beta= 0.70
     Davidson diagonalization with overlap
     ethr =  1.78E-09,  avg # of iterations =  2.3

     total cpu time spent up to now is        1.1 secs

     End of self-consistent calculation

          k = 0.0000 0.0000 0.0000 (   365 PWs)   bands (ev):

   -36.2102 -30.4136  16.3898  31.6863  31.6863  31.6948  36.7823

          k = 0.0000 0.0000 0.1250 (   357 PWs)   bands (ev):

   -35.9454 -30.5596  16.0648  26.1867  32.3415  32.3462  37.4498

          k = 0.0000 0.0000 0.2500 (   361 PWs)   bands (ev):

   -35.1992 -31.0214  15.4009  20.6558  34.3043  34.3069  39.4522

          k = 0.0000 0.0000 0.3750 (   352 PWs)   bands (ev):

   -34.1159 -31.8217  14.8819  17.0405  37.5655  37.5659  42.7888

          k = 0.0000 0.0000-0.5000 (   336 PWs)   bands (ev):

   -32.9702 -32.8508  15.0812  15.4329  42.0036  42.0046  42.2041

          k = 0.0000 0.1250 0.1250 (   356 PWs)   bands (ev):

   -35.6906 -30.6864  15.7950  24.6119  29.5932  32.9976  42.4749

          k = 0.0000 0.1250 0.2500 (   358 PWs)   bands (ev):

   -34.9759 -31.0915  15.1249  20.1421  30.6295  34.9559  45.5293

          k = 0.0000 0.1250 0.3750 (   345 PWs)   bands (ev):

   -33.9461 -31.8116  14.6350  16.7151  33.6894  38.2076  43.7340

          k = 0.0000 0.1250-0.5000 (   350 PWs)   bands (ev):

   -32.8706 -32.7593  14.7971  15.1191  38.0152  38.1848  42.6265

          k = 0.0000 0.2500 0.2500 (   338 PWs)   bands (ev):

   -34.3571 -31.3369  14.5074  18.0960  29.1967  36.9013  44.7425

          k = 0.0000 0.2500 0.3750 (   347 PWs)   bands (ev):

   -33.4895 -31.8274  13.9421  15.6155  31.0034  39.3222  40.1284

          k = 0.0000 0.2500-0.5000 (   350 PWs)   bands (ev):

   -32.6232 -32.5362  14.0488  14.2882  34.5217  34.6758  44.4563

          k = 0.0000 0.3750 0.3750 (   354 PWs)   bands (ev):

   -32.8911 -31.9747  13.2754  14.1408  31.1414  35.9095  43.2524

          k = 0.0000 0.3750-0.5000 (   356 PWs)   bands (ev):

   -32.3620 -32.3138  13.1752  13.2996  33.0391  33.1438  47.2656

          k = 0.0000-0.5000-0.5000 (   356 PWs)   bands (ev):

   -32.2372 -32.2343  12.8190  12.8224  32.7605  32.7710  49.4421

          k = 0.1250 0.1250 0.1250 (   353 PWs)   bands (ev):

   -35.4457 -30.7951  15.5291  25.2734  25.2734  35.0333  47.1681

          k = 0.1250 0.1250 0.2500 (   353 PWs)   bands (ev):

   -34.7615 -31.1503  14.9185  20.1828  27.2566  37.3312  48.2001

          k = 0.1250 0.1250 0.3750 (   354 PWs)   bands (ev):

   -33.7831 -31.7982  14.4624  16.6516  30.5577  40.4537  41.0712

          k = 0.1250 0.1250-0.5000 (   352 PWs)   bands (ev):

   -32.7738 -32.6702  14.6963  14.9945  35.0851  35.2539  44.4881

          k = 0.1250 0.2500 0.2500 (   349 PWs)   bands (ev):

   -34.1698 -31.3626  14.4000  18.7590  25.6353  39.9014  43.3943

          k = 0.1250 0.2500 0.3750 (   351 PWs)   bands (ev):

   -33.3463 -31.8016  14.0269  16.0858  27.9344  37.4464  42.8377

          k = 0.1250 0.2500-0.5000 (   354 PWs)   bands (ev):

   -32.5340 -32.4531  14.3175  14.5438  32.0009  32.1624  46.1283

          k = 0.1250 0.3750 0.3750 (   347 PWs)   bands (ev):

   -32.7779 -31.9268  13.6392  14.8045  28.3423  34.1458  45.0490

          k = 0.1250 0.3750-0.5000 (   346 PWs)   bands (ev):

   -32.2813 -32.2365  13.7452  13.8641  30.7973  30.9172  45.9594

          k = 0.1250-0.5000-0.5000 (   348 PWs)   bands (ev):

   -32.1612 -32.1586  13.4829  13.4862  30.6910  30.7000  45.1517

          k = 0.2500 0.2500 0.2500 (   350 PWs)   bands (ev):

   -33.6591 -31.4778  14.2311  20.7475  20.7475  41.8496  41.8496

          k = 0.2500 0.2500 0.3750 (   349 PWs)   bands (ev):

   -32.9668 -31.7667  14.2425  17.1049  24.0589  34.6287  41.9274

          k = 0.2500 0.2500-0.5000 (   350 PWs)   bands (ev):

   -32.3137 -32.2506  14.9282  15.1092  28.6076  28.7719  43.3705

          k = 0.2500 0.3750 0.3750 (   350 PWs)   bands (ev):

   -32.4848 -31.8247  14.5969  16.7951  23.8116  31.5249  37.9514

          k = 0.2500 0.3750-0.5000 (   342 PWs)   bands (ev):

   -32.0829 -32.0481  15.3670  15.4646  27.0927  27.2339  38.6722

          k = 0.2500-0.5000-0.5000 (   352 PWs)   bands (ev):

   -31.9753 -31.9733  15.4741  15.4771  27.0792  27.0864  36.6477

          k = 0.3750 0.3750 0.3750 (   344 PWs)   bands (ev):

   -32.1340 -31.7715  15.9235  20.1108  20.1108  30.7020  30.7020

          k = 0.3750 0.3750-0.5000 (   338 PWs)   bands (ev):

   -31.8773 -31.8582  17.5844  17.6305  24.6676  24.8306  32.3854

          k = 0.3750-0.5000-0.5000 (   340 PWs)   bands (ev):

   -31.7852 -31.7840  18.7909  18.7928  24.3917  24.3991  29.3887

          k =-0.5000-0.5000-0.5000 (   360 PWs)   bands (ev):

   -31.7051 -31.7051  23.2713  23.3500  23.3500  23.5127  23.5127

          k =-0.1250 0.0000 0.1250 (   356 PWs)   bands (ev):

   -35.6906 -30.6863  15.7929  24.6192  29.5878  32.9976  42.4746

          k =-0.1250 0.0000 0.2500 (   358 PWs)   bands (ev):

   -34.9759 -31.0914  15.1208  20.1492  30.6260  34.9559  45.5295

          k =-0.1250 0.0000 0.3750 (   345 PWs)   bands (ev):

   -33.9462 -31.8115  14.6286  16.7227  33.6868  38.2076  43.7371

          k =-0.2500 0.0000 0.2500 (   338 PWs)   bands (ev):

   -34.3572 -31.3367  14.4990  18.1086  29.1910  36.9012  44.7470

          k =-0.2500 0.0000 0.3750 (   347 PWs)   bands (ev):

   -33.4897 -31.8272  13.9300  15.6298  30.9982  39.3268  40.1283

          k =-0.3750 0.0000 0.3750 (   354 PWs)   bands (ev):

   -32.8914 -31.9744  13.2587  14.1591  31.1349  35.9158  43.2523

          k = 0.1250-0.1250 0.1250 (   353 PWs)   bands (ev):

   -35.4458 -30.7950  15.5263  25.2734  25.2814  35.0268  47.1678

          k = 0.1250-0.1250 0.2500 (   353 PWs)   bands (ev):

   -34.7616 -31.1501  14.9154  20.1864  27.2601  37.3257  48.2071

          k =-0.2500 0.1250 0.1250 (   353 PWs)   bands (ev):

   -34.7616 -31.1501  14.9128  20.1920  27.2566  37.3256  48.2069

          k = 0.1250-0.1250 0.3750 (   354 PWs)   bands (ev):

   -33.7832 -31.7981  14.4581  16.6564  30.5589  40.4434  41.0770

          k =-0.3750 0.1250 0.1250 (   354 PWs)   bands (ev):

   -33.7833 -31.7980  14.4535  16.6620  30.5577  40.4480  41.0716

          k = 0.1250-0.1250-0.5000 (   352 PWs)   bands (ev):

   -32.7738 -32.6702  14.6964  14.9945  35.0844  35.2532  44.4894

          k = 0.2500-0.1250 0.2500 (   349 PWs)   bands (ev):

   -34.1699 -31.3624  14.3982  18.7590  25.6406  39.8936  43.3945

          k =-0.2500 0.1250 0.2500 (   349 PWs)   bands (ev):

   -34.1700 -31.3623  14.3932  18.7687  25.6347  39.8946  43.3966

          k = 0.2500-0.1250 0.3750 (   351 PWs)   bands (ev):

   -33.3464 -31.8015  14.0255  16.0869  27.9370  37.4426  42.8353

          k =-0.2500 0.1250 0.3750 (   351 PWs)   bands (ev):

   -33.3466 -31.8013  14.0187  16.0957  27.9329  37.4465  42.8347

          k =-0.3750 0.2500 0.1250 (   351 PWs)   bands (ev):

   -33.3466 -31.8013  14.0171  16.0975  27.9331  37.4477  42.8299

          k = 0.2500-0.1250-0.5000 (   354 PWs)   bands (ev):

   -32.5340 -32.4531  14.3176  14.5439  32.0003  32.1618  46.1366

          k = 0.3750-0.1250 0.3750 (   347 PWs)   bands (ev):

   -32.7779 -31.9267  13.6390  14.8045  28.3441  34.1432  45.0471

          k =-0.3750 0.1250 0.3750 (   347 PWs)   bands (ev):

   -32.7782 -31.9264  13.6274  14.8178  28.3389  34.1491  45.0358

          k = 0.3750-0.1250-0.5000 (   346 PWs)   bands (ev):

   -32.2813 -32.2365  13.7453  13.8642  30.7969  30.9169  45.9606

          k = 0.2500-0.2500 0.2500 (   350 PWs)   bands (ev):

   -33.6593 -31.4775  14.2271  20.7474  20.7541  41.8306  41.8497

          k = 0.2500-0.2500 0.3750 (   349 PWs)   bands (ev):

   -32.9670 -31.7665  14.2395  17.1080  24.0605  34.6262  41.9248

          k =-0.3750 0.2500 0.2500 (   349 PWs)   bands (ev):

   -32.9671 -31.7664  14.2365  17.1123  24.0589  34.6287  41.9175

          k = 0.2500-0.2500-0.5000 (   350 PWs)   bands (ev):

   -32.3137 -32.2506  14.9284  15.1093  28.6070  28.7713  43.3717

          k = 0.3750-0.2500 0.3750 (   350 PWs)   bands (ev):

   -32.4850 -31.8246  14.5964  16.7951  23.8139  31.5217  37.9514

          k =-0.3750 0.2500 0.3750 (   350 PWs)   bands (ev):

   -32.4851 -31.8244  14.5922  16.8012  23.8106  31.5255  37.9470

          k = 0.3750-0.2500-0.5000 (   342 PWs)   bands (ev):

   -32.0829 -32.0481  15.3671  15.4647  27.0922  27.2334  38.6728

          k = 0.3750-0.3750 0.3750 (   344 PWs)   bands (ev):

   -32.1342 -31.7713  15.9223  20.1108  20.1132  30.6989  30.7020

          k = 0.3750-0.3750-0.5000 (   338 PWs)   bands (ev):

   -31.8773 -31.8582  17.5846  17.6307  24.6670  24.8300  32.3858

     the Fermi energy is    14.9885 ev

!    total energy              =     -29.07259018 Ry
     total all-electron energy =       -29.072613 Ry
     estimated scf accuracy    <          4.2E-09 Ry
     smearing contrib. (-TS)   =      -0.00077684 Ry
     internal energy E=F+TS    =     -29.07181334 Ry

     The total energy is F=E-TS. E is the sum of the following terms:
     one-electron contribution =      -7.79194841 Ry
     hartree contribution      =       5.03109130 Ry
     xc contribution           =      -8.00789560 Ry
     ewald contribution        =     -18.47717427 Ry
     one-center paw contrib.   =       0.17411365 Ry

     convergence has been achieved in   5 iterations

     Forces acting on atoms (cartesian axes, Ry/au):

     atom    1 type  1   force =     0.02659327    0.02659327    0.02659327
     atom    2 type  1   force =    -0.02659327   -0.02659327   -0.02659327

     Total force =     0.065140     Total SCF correction =     0.000018


     Computing stress (Cartesian axis) and pressure

          total   stress  (Ry/bohr**3)                   (kbar)     P=     4639.58
   0.03153920   0.00000569   0.00000569         4639.58        0.84        0.84
   0.00000569   0.03153920   0.00000569            0.84     4639.58        0.84
   0.00000569   0.00000569   0.03153920            0.84        0.84     4639.58


     Writing all to output data dir ./tmp/Li_preselected_4.save/ :
     XML data file, charge density, pseudopotentials, collected wavefunctions

     init_run     :      0.17s CPU      0.18s WALL (       1 calls)
     electrons    :      0.84s CPU      0.87s WALL (       1 calls)
     forces       :      0.01s CPU      0.01s WALL (       1 calls)
     stress       :      0.05s CPU      0.05s WALL (       1 calls)

     Called by init_run:
     wfcinit      :      0.06s CPU      0.06s WALL (       1 calls)
     potinit      :      0.03s CPU      0.03s WALL (       1 calls)
     hinit0       :      0.08s CPU      0.08s WALL (       1 calls)

     Called by electrons:
     c_bands      :      0.61s CPU      0.63s WALL (       6 calls)
     sum_band     :      0.11s CPU      0.12s WALL (       6 calls)
     v_of_rho     :      0.01s CPU      0.01s WALL (       6 calls)
     newd         :      0.00s CPU      0.01s WALL (       6 calls)
     PAW_pot      :      0.13s CPU      0.13s WALL (       6 calls)
     mix_rho      :      0.00s CPU      0.00s WALL (       6 calls)

     Called by c_bands:
     init_us_2    :      0.03s CPU      0.03s WALL (     975 calls)
     cegterg      :      0.58s CPU      0.60s WALL (     390 calls)

     Called by *egterg:
     cdiaghg      :      0.04s CPU      0.05s WALL (    1318 calls)
     h_psi        :      0.49s CPU      0.50s WALL (    1448 calls)
     s_psi        :      0.02s CPU      0.02s WALL (    1448 calls)
     g_psi        :      0.00s CPU      0.00s WALL (     993 calls)

     Called by h_psi:
     h_psi:calbec :      0.02s CPU      0.02s WALL (    1448 calls)
     vloc_psi     :      0.45s CPU      0.46s WALL (    1448 calls)
     add_vuspsi   :      0.02s CPU      0.02s WALL (    1448 calls)

     General routines
     calbec       :      0.03s CPU      0.03s WALL (    2163 calls)
     fft          :      0.00s CPU      0.01s WALL (      85 calls)
     ffts         :      0.00s CPU      0.00s WALL (      12 calls)
     fftw         :      0.47s CPU      0.47s WALL (   17494 calls)
     interpolate  :      0.00s CPU      0.00s WALL (       6 calls)

     Parallel routines

     PWSCF        :      1.10s CPU      1.18s WALL


   This run was terminated on:  16: 3: 9  18Mar2025            

=------------------------------------------------------------------------------=
   JOB DONE.
=------------------------------------------------------------------------------=
Note: The following floating-point exceptions are signalling: IEEE_INVALID_FLAG IEEE_DIVIDE_BY_ZERO IEEE_OVERFLOW_FLAG IEEE_UNDERFLOW_FLAG
