
     Program PWSCF v.7.3.1 starts on 18Mar2025 at 16: 3:14 

     This program is part of the open-source Quantum ESPRESSO suite
     for quantum simulation of materials; please cite
         "P. Giannozzi et al., J. Phys.:Condens. Matter 21 395502 (2009);
         "P. Giannozzi et al., J. Phys.:Condens. Matter 29 465901 (2017);
         "P. Giannozzi et al., J. Chem. Phys. 152 154105 (2020);
          URL http://www.quantum-espresso.org", 
     in publications or presentations arising from this work. More details at
     http://www.quantum-espresso.org/quote

     Parallel version (MPI), running on     1 processors

     MPI processes distributed on     1 nodes
     0 MiB available memory on the printing compute node when the environment starts

     Reading input from qe_outputs_train_set/Li_preselected_6.in

     Current dimensions of program PWSCF are:
     Max number of different atomic species (ntypx) = 10
     Max number of k-points (npk) =  40000
     Max angular momentum in pseudopotentials (lmaxx) =  4

     Subspace diagonalization in iterative solution of the eigenvalue problem:
     a serial algorithm will be used


     G-vector sticks info
     --------------------
     sticks:   dense  smooth     PW     G-vecs:    dense   smooth      PW
     Sum         293     241     89                 3791     2721     587

     Using Slab Decomposition



     bravais-lattice index     =            1
     lattice parameter (alat)  =       3.5102  a.u.
     unit-cell volume          =      43.2503 (a.u.)^3
     number of atoms/cell      =            2
     number of atomic types    =            1
     number of electrons       =         6.00
     number of Kohn-Sham states=            7
     kinetic-energy cutoff     =      60.0000  Ry
     charge density cutoff     =     300.0000  Ry
     scf convergence threshold =      1.0E-08
     mixing beta               =       0.7000
     number of iterations used =            8  plain     mixing
     Exchange-correlation= SLA  PW   PBX  PBC
                           (   1   4   3   4   0   0   0)

     celldm(1)=   3.510182  celldm(2)=   0.000000  celldm(3)=   0.000000
     celldm(4)=   0.000000  celldm(5)=   0.000000  celldm(6)=   0.000000

     crystal axes: (cart. coord. in units of alat)
               a(1) = (   1.000000   0.000000   0.000000 )  
               a(2) = (   0.000000   1.000000   0.000000 )  
               a(3) = (   0.000000   0.000000   1.000000 )  

     reciprocal axes: (cart. coord. in units 2 pi/alat)
               b(1) = (  1.000000  0.000000  0.000000 )  
               b(2) = (  0.000000  1.000000  0.000000 )  
               b(3) = (  0.000000  0.000000  1.000000 )  


     PseudoPot. # 1 for Li read from file:
     ../pseudopotentials/Li.pbe-s-kjpaw_psl.1.0.0.UPF
     MD5 check sum: d3662511b3860c829f7212fdb89d6128
     Pseudo is Projector augmented-wave, Zval =  3.0
     Generated using &quot;atomic&quot; code by A. Dal Corso  v.6.3
     Shape of augmentation charge: PSQ
     Using radial grid of 1017 points,  4 beta functions with: 
                l(1) =   0
                l(2) =   0
                l(3) =   1
                l(4) =   1
     Q(r) pseudized with 0 coefficients 


     atomic species   valence    mass     pseudopotential
     Li                3.00     6.94000     Li( 1.00)

     No symmetry found



   Cartesian axes

     site n.     atom                  positions (alat units)
         1        Li     tau(   1) = (   0.0000000   0.0000000   0.0000000  )
         2        Li     tau(   2) = (   0.4976810   0.5004620   0.5017700  )

     number of k points=   260  Gaussian smearing, width (Ry)=  0.0100

     Number of k-points >= 100: set verbosity='high' to print them.

     Dense  grid:     3791 G-vectors     FFT dimensions: (  20,  20,  20)

     Smooth grid:     2721 G-vectors     FFT dimensions: (  18,  18,  18)

     Estimated max dynamical RAM per process >      14.94 MB

     Initial potential from superposition of free atoms

     starting charge       5.9908, renormalised to       6.0000
     Starting wfcs are   10 randomized atomic wfcs
     Checking if some PAW data can be deallocated... 

     total cpu time spent up to now is        0.4 secs

     Self-consistent Calculation

     iteration #  1     ecut=    60.00 Ry     beta= 0.70
     Davidson diagonalization with overlap
     ethr =  1.00E-02,  avg # of iterations =  5.0

     Threshold (ethr) on eigenvalues was too large:
     Diagonalizing with lowered threshold

     Davidson diagonalization with overlap
     ethr =  1.02E-04,  avg # of iterations =  2.4

     total cpu time spent up to now is        1.6 secs

     total energy              =     -29.02834079 Ry
     estimated scf accuracy    <       0.00620024 Ry

     iteration #  2     ecut=    60.00 Ry     beta= 0.70
     Davidson diagonalization with overlap
     ethr =  1.03E-04,  avg # of iterations =  1.0

     total cpu time spent up to now is        2.0 secs

     total energy              =     -29.02872669 Ry
     estimated scf accuracy    <       0.00040841 Ry

     iteration #  3     ecut=    60.00 Ry     beta= 0.70
     Davidson diagonalization with overlap
     ethr =  6.81E-06,  avg # of iterations =  1.9

     total cpu time spent up to now is        2.4 secs

     total energy              =     -29.02876310 Ry
     estimated scf accuracy    <       0.00000972 Ry

     iteration #  4     ecut=    60.00 Ry     beta= 0.70
     Davidson diagonalization with overlap
     ethr =  1.62E-07,  avg # of iterations =  2.2

     total cpu time spent up to now is        2.9 secs

     total energy              =     -29.02876490 Ry
     estimated scf accuracy    <       0.00000012 Ry

     iteration #  5     ecut=    60.00 Ry     beta= 0.70
     Davidson diagonalization with overlap
     ethr =  2.04E-09,  avg # of iterations =  2.4

     total cpu time spent up to now is        3.4 secs

     End of self-consistent calculation

     Number of k-points >= 100: set verbosity='high' to print the bands.

     the Fermi energy is    15.5398 ev

!    total energy              =     -29.02876495 Ry
     total all-electron energy =       -29.028788 Ry
     estimated scf accuracy    <          7.8E-09 Ry
     smearing contrib. (-TS)   =      -0.00077473 Ry
     internal energy E=F+TS    =     -29.02799023 Ry

     The total energy is F=E-TS. E is the sum of the following terms:
     one-electron contribution =      -7.47683137 Ry
     hartree contribution      =       4.95661401 Ry
     xc contribution           =      -8.01943321 Ry
     ewald contribution        =     -18.66167429 Ry
     one-center paw contrib.   =       0.17333463 Ry

     convergence has been achieved in   5 iterations

     Forces acting on atoms (cartesian axes, Ry/au):

     atom    1 type  1   force =     0.01298006   -0.00263123   -0.00997993
     atom    2 type  1   force =    -0.01298006    0.00263123    0.00997993

     Total force =     0.023452     Total SCF correction =     0.000004


     Computing stress (Cartesian axis) and pressure

          total   stress  (Ry/bohr**3)                   (kbar)     P=     4863.36
   0.03305348  -0.00000057  -0.00000219         4862.34       -0.08       -0.32
  -0.00000057   0.03306821   0.00000044           -0.08     4864.50        0.06
  -0.00000219   0.00000044   0.03305959           -0.32        0.06     4863.23


     Writing all to output data dir ./tmp/Li_preselected_6.save/ :
     XML data file, charge density, pseudopotentials, collected wavefunctions

     init_run     :      0.34s CPU      0.35s WALL (       1 calls)
     electrons    :      2.91s CPU      3.02s WALL (       1 calls)
     forces       :      0.03s CPU      0.04s WALL (       1 calls)
     stress       :      0.15s CPU      0.16s WALL (       1 calls)

     Called by init_run:
     wfcinit      :      0.23s CPU      0.24s WALL (       1 calls)
     potinit      :      0.03s CPU      0.03s WALL (       1 calls)
     hinit0       :      0.08s CPU      0.08s WALL (       1 calls)

     Called by electrons:
     c_bands      :      2.37s CPU      2.46s WALL (       6 calls)
     sum_band     :      0.42s CPU      0.44s WALL (       6 calls)
     v_of_rho     :      0.01s CPU      0.01s WALL (       6 calls)
     newd         :      0.00s CPU      0.01s WALL (       6 calls)
     PAW_pot      :      0.13s CPU      0.13s WALL (       6 calls)
     mix_rho      :      0.00s CPU      0.00s WALL (       6 calls)

     Called by c_bands:
     init_us_2    :      0.11s CPU      0.11s WALL (    3900 calls)
     cegterg      :      2.27s CPU      2.36s WALL (    1560 calls)

     Called by *egterg:
     cdiaghg      :      0.16s CPU      0.16s WALL (    5183 calls)
     h_psi        :      1.91s CPU      1.96s WALL (    5703 calls)
     s_psi        :      0.07s CPU      0.07s WALL (    5703 calls)
     g_psi        :      0.01s CPU      0.01s WALL (    3883 calls)

     Called by h_psi:
     h_psi:calbec :      0.06s CPU      0.07s WALL (    5703 calls)
     vloc_psi     :      1.77s CPU      1.80s WALL (    5703 calls)
     add_vuspsi   :      0.06s CPU      0.07s WALL (    5703 calls)

     General routines
     calbec       :      0.10s CPU      0.13s WALL (    8563 calls)
     fft          :      0.00s CPU      0.00s WALL (      85 calls)
     ffts         :      0.00s CPU      0.00s WALL (      12 calls)
     fftw         :      1.84s CPU      1.86s WALL (   69684 calls)
     interpolate  :      0.00s CPU      0.00s WALL (       6 calls)

     Parallel routines

     PWSCF        :      3.47s CPU      3.68s WALL


   This run was terminated on:  16: 3:18  18Mar2025            

=------------------------------------------------------------------------------=
   JOB DONE.
=------------------------------------------------------------------------------=
Note: The following floating-point exceptions are signalling: IEEE_INVALID_FLAG IEEE_DIVIDE_BY_ZERO IEEE_OVERFLOW_FLAG IEEE_UNDERFLOW_FLAG
