
     Program PWSCF v.7.3.1 starts on 18Mar2025 at 16: 3:23 

     This program is part of the open-source Quantum ESPRESSO suite
     for quantum simulation of materials; please cite
         "P. Giannozzi et al., J. Phys.:Condens. Matter 21 395502 (2009);
         "P. Giannozzi et al., J. Phys.:Condens. Matter 29 465901 (2017);
         "P. Giannozzi et al., J. Chem. Phys. 152 154105 (2020);
          URL http://www.quantum-espresso.org", 
     in publications or presentations arising from this work. More details at
     http://www.quantum-espresso.org/quote

     Parallel version (MPI), running on     1 processors

     MPI processes distributed on     1 nodes
     0 MiB available memory on the printing compute node when the environment starts

     Reading input from qe_outputs_train_set/Li_preselected_3.in

     Current dimensions of program PWSCF are:
     Max number of different atomic species (ntypx) = 10
     Max number of k-points (npk) =  40000
     Max angular momentum in pseudopotentials (lmaxx) =  4

     Subspace diagonalization in iterative solution of the eigenvalue problem:
     a serial algorithm will be used


     G-vector sticks info
     --------------------
     sticks:   dense  smooth     PW     G-vecs:    dense   smooth      PW
     Sum         293     241     89                 3791     2721     587

     Using Slab Decomposition



     bravais-lattice index     =            1
     lattice parameter (alat)  =       3.5100  a.u.
     unit-cell volume          =      43.2434 (a.u.)^3
     number of atoms/cell      =            2
     number of atomic types    =            1
     number of electrons       =         6.00
     number of Kohn-Sham states=            7
     kinetic-energy cutoff     =      60.0000  Ry
     charge density cutoff     =     300.0000  Ry
     scf convergence threshold =      1.0E-08
     mixing beta               =       0.7000
     number of iterations used =            8  plain     mixing
     Exchange-correlation= SLA  PW   PBX  PBC
                           (   1   4   3   4   0   0   0)

     celldm(1)=   3.509997  celldm(2)=   0.000000  celldm(3)=   0.000000
     celldm(4)=   0.000000  celldm(5)=   0.000000  celldm(6)=   0.000000

     crystal axes: (cart. coord. in units of alat)
               a(1) = (   1.000000   0.000000   0.000000 )  
               a(2) = (   0.000000   1.000000   0.000000 )  
               a(3) = (   0.000000   0.000000   1.000000 )  

     reciprocal axes: (cart. coord. in units 2 pi/alat)
               b(1) = (  1.000000  0.000000  0.000000 )  
               b(2) = (  0.000000  1.000000  0.000000 )  
               b(3) = (  0.000000  0.000000  1.000000 )  


     PseudoPot. # 1 for Li read from file:
     ../pseudopotentials/Li.pbe-s-kjpaw_psl.1.0.0.UPF
     MD5 check sum: d3662511b3860c829f7212fdb89d6128
     Pseudo is Projector augmented-wave, Zval =  3.0
     Generated using &quot;atomic&quot; code by A. Dal Corso  v.6.3
     Shape of augmentation charge: PSQ
     Using radial grid of 1017 points,  4 beta functions with: 
                l(1) =   0
                l(2) =   0
                l(3) =   1
                l(4) =   1
     Q(r) pseudized with 0 coefficients 


     atomic species   valence    mass     pseudopotential
     Li                3.00     6.94000     Li( 1.00)

     12 Sym. Ops., with inversion, found ( 6 have fractional translation)



   Cartesian axes

     site n.     atom                  positions (alat units)
         1        Li     tau(   1) = (   0.0000230   0.0000230   0.0000230  )
         2        Li     tau(   2) = (   0.4999780   0.4999780   0.4999780  )

     number of k points=    65  Gaussian smearing, width (Ry)=  0.0100
                       cart. coord. in units 2pi/alat
        k(    1) = (   0.0000000   0.0000000   0.0000000), wk =   0.0039062
        k(    2) = (   0.0000000   0.0000000   0.1250000), wk =   0.0234375
        k(    3) = (   0.0000000   0.0000000   0.2500000), wk =   0.0234375
        k(    4) = (   0.0000000   0.0000000   0.3750000), wk =   0.0234375
        k(    5) = (   0.0000000   0.0000000  -0.5000000), wk =   0.0117188
        k(    6) = (   0.0000000   0.1250000   0.1250000), wk =   0.0234375
        k(    7) = (   0.0000000   0.1250000   0.2500000), wk =   0.0468750
        k(    8) = (   0.0000000   0.1250000   0.3750000), wk =   0.0468750
        k(    9) = (   0.0000000   0.1250000  -0.5000000), wk =   0.0468750
        k(   10) = (   0.0000000   0.2500000   0.2500000), wk =   0.0234375
        k(   11) = (   0.0000000   0.2500000   0.3750000), wk =   0.0468750
        k(   12) = (   0.0000000   0.2500000  -0.5000000), wk =   0.0468750
        k(   13) = (   0.0000000   0.3750000   0.3750000), wk =   0.0234375
        k(   14) = (   0.0000000   0.3750000  -0.5000000), wk =   0.0468750
        k(   15) = (   0.0000000  -0.5000000  -0.5000000), wk =   0.0117188
        k(   16) = (   0.1250000   0.1250000   0.1250000), wk =   0.0078125
        k(   17) = (   0.1250000   0.1250000   0.2500000), wk =   0.0234375
        k(   18) = (   0.1250000   0.1250000   0.3750000), wk =   0.0234375
        k(   19) = (   0.1250000   0.1250000  -0.5000000), wk =   0.0234375
        k(   20) = (   0.1250000   0.2500000   0.2500000), wk =   0.0234375
        k(   21) = (   0.1250000   0.2500000   0.3750000), wk =   0.0468750
        k(   22) = (   0.1250000   0.2500000  -0.5000000), wk =   0.0468750
        k(   23) = (   0.1250000   0.3750000   0.3750000), wk =   0.0234375
        k(   24) = (   0.1250000   0.3750000  -0.5000000), wk =   0.0468750
        k(   25) = (   0.1250000  -0.5000000  -0.5000000), wk =   0.0234375
        k(   26) = (   0.2500000   0.2500000   0.2500000), wk =   0.0078125
        k(   27) = (   0.2500000   0.2500000   0.3750000), wk =   0.0234375
        k(   28) = (   0.2500000   0.2500000  -0.5000000), wk =   0.0234375
        k(   29) = (   0.2500000   0.3750000   0.3750000), wk =   0.0234375
        k(   30) = (   0.2500000   0.3750000  -0.5000000), wk =   0.0468750
        k(   31) = (   0.2500000  -0.5000000  -0.5000000), wk =   0.0234375
        k(   32) = (   0.3750000   0.3750000   0.3750000), wk =   0.0078125
        k(   33) = (   0.3750000   0.3750000  -0.5000000), wk =   0.0234375
        k(   34) = (   0.3750000  -0.5000000  -0.5000000), wk =   0.0234375
        k(   35) = (  -0.5000000  -0.5000000  -0.5000000), wk =   0.0039062
        k(   36) = (   0.0000000   0.1250000  -0.1250000), wk =   0.0234375
        k(   37) = (   0.0000000   0.2500000  -0.1250000), wk =   0.0468750
        k(   38) = (   0.0000000   0.3750000  -0.1250000), wk =   0.0468750
        k(   39) = (   0.0000000   0.2500000  -0.2500000), wk =   0.0234375
        k(   40) = (   0.0000000   0.3750000  -0.2500000), wk =   0.0468750
        k(   41) = (   0.0000000   0.3750000  -0.3750000), wk =   0.0234375
        k(   42) = (  -0.1250000   0.1250000   0.1250000), wk =   0.0234375
        k(   43) = (  -0.1250000   0.2500000   0.1250000), wk =   0.0468750
        k(   44) = (   0.1250000  -0.2500000   0.1250000), wk =   0.0234375
        k(   45) = (  -0.1250000   0.3750000   0.1250000), wk =   0.0468750
        k(   46) = (   0.1250000  -0.3750000   0.1250000), wk =   0.0234375
        k(   47) = (  -0.1250000  -0.5000000   0.1250000), wk =   0.0234375
        k(   48) = (  -0.1250000   0.2500000   0.2500000), wk =   0.0234375
        k(   49) = (   0.1250000   0.2500000  -0.2500000), wk =   0.0468750
        k(   50) = (  -0.1250000   0.3750000   0.2500000), wk =   0.0468750
        k(   51) = (   0.1250000   0.3750000  -0.2500000), wk =   0.0468750
        k(   52) = (   0.1250000  -0.3750000   0.2500000), wk =   0.0468750
        k(   53) = (  -0.1250000  -0.5000000   0.2500000), wk =   0.0468750
        k(   54) = (  -0.1250000   0.3750000   0.3750000), wk =   0.0234375
        k(   55) = (   0.1250000   0.3750000  -0.3750000), wk =   0.0468750
        k(   56) = (  -0.1250000  -0.5000000   0.3750000), wk =   0.0468750
        k(   57) = (  -0.2500000   0.2500000   0.2500000), wk =   0.0234375
        k(   58) = (  -0.2500000   0.3750000   0.2500000), wk =   0.0468750
        k(   59) = (   0.2500000  -0.3750000   0.2500000), wk =   0.0234375
        k(   60) = (  -0.2500000  -0.5000000   0.2500000), wk =   0.0234375
        k(   61) = (  -0.2500000   0.3750000   0.3750000), wk =   0.0234375
        k(   62) = (   0.2500000   0.3750000  -0.3750000), wk =   0.0468750
        k(   63) = (  -0.2500000  -0.5000000   0.3750000), wk =   0.0468750
        k(   64) = (  -0.3750000   0.3750000   0.3750000), wk =   0.0234375
        k(   65) = (  -0.3750000  -0.5000000   0.3750000), wk =   0.0234375

     Dense  grid:     3791 G-vectors     FFT dimensions: (  20,  20,  20)

     Smooth grid:     2721 G-vectors     FFT dimensions: (  18,  18,  18)

     Estimated max dynamical RAM per process >       7.88 MB

     Initial potential from superposition of free atoms

     starting charge       5.9908, renormalised to       6.0000
     Starting wfcs are   10 randomized atomic wfcs
     Checking if some PAW data can be deallocated... 

     total cpu time spent up to now is        0.2 secs

     Self-consistent Calculation

     iteration #  1     ecut=    60.00 Ry     beta= 0.70
     Davidson diagonalization with overlap
     ethr =  1.00E-02,  avg # of iterations =  5.0

     Threshold (ethr) on eigenvalues was too large:
     Diagonalizing with lowered threshold

     Davidson diagonalization with overlap
     ethr =  1.02E-04,  avg # of iterations =  2.4

     total cpu time spent up to now is        0.5 secs

     total energy              =     -29.02802992 Ry
     estimated scf accuracy    <       0.00618627 Ry

     iteration #  2     ecut=    60.00 Ry     beta= 0.70
     Davidson diagonalization with overlap
     ethr =  1.03E-04,  avg # of iterations =  1.1

     total cpu time spent up to now is        0.6 secs

     total energy              =     -29.02841333 Ry
     estimated scf accuracy    <       0.00040614 Ry

     iteration #  3     ecut=    60.00 Ry     beta= 0.70
     Davidson diagonalization with overlap
     ethr =  6.77E-06,  avg # of iterations =  1.9

     total cpu time spent up to now is        0.8 secs

     total energy              =     -29.02844984 Ry
     estimated scf accuracy    <       0.00000976 Ry

     iteration #  4     ecut=    60.00 Ry     beta= 0.70
     Davidson diagonalization with overlap
     ethr =  1.63E-07,  avg # of iterations =  1.7

     total cpu time spent up to now is        0.9 secs

     total energy              =     -29.02845153 Ry
     estimated scf accuracy    <       0.00000014 Ry

     iteration #  5     ecut=    60.00 Ry     beta= 0.70
     Davidson diagonalization with overlap
     ethr =  2.39E-09,  avg # of iterations =  2.3

     total cpu time spent up to now is        1.0 secs

     End of self-consistent calculation

          k = 0.0000 0.0000 0.0000 (   341 PWs)   bands (ev):

   -36.1623 -30.0327  17.1976  32.4262  32.4262  32.4262  37.6125

          k = 0.0000 0.0000 0.1250 (   341 PWs)   bands (ev):

   -35.8833 -30.1889  16.9356  26.8166  33.0946  33.0946  38.2933

          k = 0.0000 0.0000 0.2500 (   345 PWs)   bands (ev):

   -35.0977 -30.6782  16.1383  21.2022  35.0975  35.0975  40.3361

          k = 0.0000 0.0000 0.3750 (   344 PWs)   bands (ev):

   -33.9539 -31.5281  15.5532  17.5438  38.4254  38.4254  43.7407

          k = 0.0000 0.0000-0.5000 (   336 PWs)   bands (ev):

   -32.6811 -32.6800  15.8038  15.8071  43.0558  43.0569  43.0576

          k = 0.0000 0.1250 0.1250 (   340 PWs)   bands (ev):

   -35.6151 -30.3230  16.6320  25.2044  30.2985  33.7621  43.4315

          k = 0.0000 0.1250 0.2500 (   336 PWs)   bands (ev):

   -34.8620 -30.7515  15.8594  20.6652  31.3682  35.7613  46.5552

          k = 0.0000 0.1250 0.3750 (   340 PWs)   bands (ev):

   -33.7741 -31.5162  15.2465  17.2033  34.4852  39.0808  44.7363

          k = 0.0000 0.1250-0.5000 (   338 PWs)   bands (ev):

   -32.5788 -32.5778  15.4947  15.4977  38.9892  38.9908  43.6910

          k = 0.0000 0.2500 0.2500 (   338 PWs)   bands (ev):

   -34.2084 -31.0108  15.1188  18.5565  29.9285  37.7474  45.7895

          k = 0.0000 0.2500 0.3750 (   344 PWs)   bands (ev):

   -33.2898 -31.5301  14.4774  16.0437  31.7863  40.2911  41.0345

          k = 0.0000 0.2500-0.5000 (   342 PWs)   bands (ev):

   -32.3270 -32.3261  14.6283  14.6306  35.4706  35.4721  45.5560

          k = 0.0000 0.3750 0.3750 (   340 PWs)   bands (ev):

   -32.6542 -31.6836  13.7239  14.5215  31.9979  36.8713  44.2290

          k = 0.0000 0.3750-0.5000 (   344 PWs)   bands (ev):

   -32.0676 -32.0671  13.6216  13.6228  34.0043  34.0053  48.4138

          k = 0.0000-0.5000-0.5000 (   356 PWs)   bands (ev):

   -31.9578 -31.9578  13.1730  13.1730  33.6689  33.6689  50.5532

          k = 0.1250 0.1250 0.1250 (   338 PWs)   bands (ev):

   -35.3573 -30.4373  16.2927  25.8792  25.8792  35.8766  48.2132

          k = 0.1250 0.1250 0.2500 (   341 PWs)   bands (ev):

   -34.6357 -30.8132  15.5990  20.7001  27.9026  38.2373  49.2803

          k = 0.1250 0.1250 0.3750 (   344 PWs)   bands (ev):

   -33.6013 -31.5006  15.0426  17.1394  31.2708  41.4375  41.9962

          k = 0.1250 0.1250-0.5000 (   342 PWs)   bands (ev):

   -32.4795 -32.4785  15.3620  15.3648  35.9744  35.9760  45.6365

          k = 0.1250 0.2500 0.2500 (   339 PWs)   bands (ev):

   -34.0103 -31.0368  15.0122  19.2329  26.2647  40.8816  44.3876

          k = 0.1250 0.2500 0.3750 (   341 PWs)   bands (ev):

   -33.1380 -31.5017  14.5567  16.5262  28.6196  38.3265  43.8916

          k = 0.1250 0.2500-0.5000 (   340 PWs)   bands (ev):

   -32.2350 -32.2342  14.8955  14.8977  32.8539  32.8554  47.2857

          k = 0.1250 0.3750 0.3750 (   340 PWs)   bands (ev):

   -32.5340 -31.6322  14.0874  15.1986  29.0726  35.0044  46.1479

          k = 0.1250 0.3750-0.5000 (   340 PWs)   bands (ev):

   -31.9835 -31.9831  14.1989  14.2001  31.6561  31.6572  47.0938

          k = 0.1250-0.5000-0.5000 (   340 PWs)   bands (ev):

   -31.8770 -31.8770  13.8503  13.8503  31.5252  31.5252  46.1572

          k = 0.2500 0.2500 0.2500 (   350 PWs)   bands (ev):

   -33.4694 -31.1573  14.7824  21.2616  21.2616  42.7899  42.7899

          k = 0.2500 0.2500 0.3750 (   337 PWs)   bands (ev):

   -32.7349 -31.4625  14.7444  17.5603  24.6402  35.4222  42.8890

          k = 0.2500 0.2500-0.5000 (   338 PWs)   bands (ev):

   -32.0090 -32.0084  15.4749  15.4766  29.3631  29.3646  44.5455

          k = 0.2500 0.3750 0.3750 (   335 PWs)   bands (ev):

   -32.2223 -31.5223  15.0605  17.2294  24.4038  32.2771  38.8123

          k = 0.2500 0.3750-0.5000 (   340 PWs)   bands (ev):

   -31.7771 -31.7768  15.8406  15.8415  27.8280  27.8293  39.6703

          k = 0.2500-0.5000-0.5000 (   336 PWs)   bands (ev):

   -31.6792 -31.6792  15.8817  15.8817  27.7814  27.7814  37.4794

          k = 0.3750 0.3750 0.3750 (   332 PWs)   bands (ev):

   -31.8487 -31.4646  16.3900  20.6122  20.6122  31.4159  31.4159

          k = 0.3750 0.3750-0.5000 (   330 PWs)   bands (ev):

   -31.5659 -31.5657  18.0710  18.0715  25.3428  25.3443  33.2410

          k = 0.3750-0.5000-0.5000 (   332 PWs)   bands (ev):

   -31.4769 -31.4769  19.2657  19.2657  24.9968  24.9968  30.0754

          k =-0.5000-0.5000-0.5000 (   304 PWs)   bands (ev):

   -31.3911 -31.3911  23.9981  23.9985  23.9995  24.0000  24.0003

          k = 0.0000 0.1250-0.1250 (   340 PWs)   bands (ev):

   -35.6151 -30.3230  16.6320  25.2044  30.2985  33.7621  43.4315

          k = 0.0000 0.2500-0.1250 (   336 PWs)   bands (ev):

   -34.8620 -30.7515  15.8594  20.6652  31.3682  35.7613  46.5552

          k = 0.0000 0.3750-0.1250 (   340 PWs)   bands (ev):

   -33.7741 -31.5162  15.2465  17.2033  34.4852  39.0808  44.7363

          k = 0.0000 0.2500-0.2500 (   338 PWs)   bands (ev):

   -34.2084 -31.0108  15.1188  18.5565  29.9285  37.7474  45.7895

          k = 0.0000 0.3750-0.2500 (   344 PWs)   bands (ev):

   -33.2898 -31.5301  14.4774  16.0437  31.7863  40.2911  41.0345

          k = 0.0000 0.3750-0.3750 (   340 PWs)   bands (ev):

   -32.6542 -31.6836  13.7239  14.5215  31.9979  36.8713  44.2290

          k =-0.1250 0.1250 0.1250 (   338 PWs)   bands (ev):

   -35.3573 -30.4373  16.2927  25.8792  25.8792  35.8766  48.2132

          k =-0.1250 0.2500 0.1250 (   341 PWs)   bands (ev):

   -34.6357 -30.8132  15.5990  20.7001  27.9026  38.2373  49.2803

          k = 0.1250-0.2500 0.1250 (   341 PWs)   bands (ev):

   -34.6357 -30.8132  15.5990  20.7001  27.9026  38.2373  49.2803

          k =-0.1250 0.3750 0.1250 (   344 PWs)   bands (ev):

   -33.6013 -31.5006  15.0426  17.1394  31.2708  41.4375  41.9962

          k = 0.1250-0.3750 0.1250 (   344 PWs)   bands (ev):

   -33.6013 -31.5006  15.0426  17.1394  31.2708  41.4375  41.9962

          k =-0.1250-0.5000 0.1250 (   342 PWs)   bands (ev):

   -32.4795 -32.4785  15.3620  15.3648  35.9744  35.9760  45.6364

          k =-0.1250 0.2500 0.2500 (   339 PWs)   bands (ev):

   -34.0103 -31.0368  15.0122  19.2329  26.2647  40.8816  44.3876

          k = 0.1250 0.2500-0.2500 (   339 PWs)   bands (ev):

   -34.0103 -31.0368  15.0122  19.2329  26.2647  40.8816  44.3876

          k =-0.1250 0.3750 0.2500 (   341 PWs)   bands (ev):

   -33.1380 -31.5017  14.5567  16.5262  28.6196  38.3265  43.8916

          k = 0.1250 0.3750-0.2500 (   341 PWs)   bands (ev):

   -33.1380 -31.5017  14.5567  16.5262  28.6196  38.3265  43.8916

          k = 0.1250-0.3750 0.2500 (   341 PWs)   bands (ev):

   -33.1380 -31.5017  14.5567  16.5262  28.6196  38.3265  43.8916

          k =-0.1250-0.5000 0.2500 (   340 PWs)   bands (ev):

   -32.2350 -32.2342  14.8955  14.8977  32.8539  32.8554  47.2858

          k =-0.1250 0.3750 0.3750 (   340 PWs)   bands (ev):

   -32.5340 -31.6322  14.0874  15.1986  29.0726  35.0044  46.1479

          k = 0.1250 0.3750-0.3750 (   340 PWs)   bands (ev):

   -32.5340 -31.6322  14.0874  15.1986  29.0726  35.0044  46.1479

          k =-0.1250-0.5000 0.3750 (   340 PWs)   bands (ev):

   -31.9835 -31.9831  14.1989  14.2001  31.6561  31.6572  47.0928

          k =-0.2500 0.2500 0.2500 (   350 PWs)   bands (ev):

   -33.4694 -31.1573  14.7824  21.2616  21.2616  42.7899  42.7899

          k =-0.2500 0.3750 0.2500 (   337 PWs)   bands (ev):

   -32.7349 -31.4625  14.7444  17.5603  24.6402  35.4222  42.8891

          k = 0.2500-0.3750 0.2500 (   337 PWs)   bands (ev):

   -32.7349 -31.4625  14.7444  17.5603  24.6402  35.4222  42.8891

          k =-0.2500-0.5000 0.2500 (   338 PWs)   bands (ev):

   -32.0090 -32.0084  15.4749  15.4766  29.3631  29.3646  44.5465

          k =-0.2500 0.3750 0.3750 (   335 PWs)   bands (ev):

   -32.2223 -31.5223  15.0605  17.2294  24.4038  32.2771  38.8123

          k = 0.2500 0.3750-0.3750 (   335 PWs)   bands (ev):

   -32.2223 -31.5223  15.0605  17.2294  24.4038  32.2771  38.8123

          k =-0.2500-0.5000 0.3750 (   340 PWs)   bands (ev):

   -31.7771 -31.7768  15.8406  15.8415  27.8280  27.8293  39.6709

          k =-0.3750 0.3750 0.3750 (   332 PWs)   bands (ev):

   -31.8487 -31.4646  16.3900  20.6122  20.6122  31.4159  31.4159

          k =-0.3750-0.5000 0.3750 (   330 PWs)   bands (ev):

   -31.5659 -31.5657  18.0710  18.0715  25.3428  25.3443  33.2403

     the Fermi energy is    15.5382 ev

!    total energy              =     -29.02845158 Ry
     total all-electron energy =       -29.028474 Ry
     estimated scf accuracy    <          7.6E-09 Ry
     smearing contrib. (-TS)   =      -0.00079690 Ry
     internal energy E=F+TS    =     -29.02765468 Ry

     The total energy is F=E-TS. E is the sum of the following terms:
     one-electron contribution =      -7.47481223 Ry
     hartree contribution      =       4.95590929 Ry
     xc contribution           =      -8.01931059 Ry
     ewald contribution        =     -18.66275152 Ry
     one-center paw contrib.   =       0.17331037 Ry

     convergence has been achieved in   5 iterations

     Forces acting on atoms (cartesian axes, Ry/au):

     atom    1 type  1   force =     0.00026170    0.00026170    0.00026170
     atom    2 type  1   force =    -0.00026170   -0.00026170   -0.00026170

     Total force =     0.000641     Total SCF correction =     0.000002


     Computing stress (Cartesian axis) and pressure

          total   stress  (Ry/bohr**3)                   (kbar)     P=     4863.27
   0.03305986  -0.00000000  -0.00000000         4863.27       -0.00       -0.00
  -0.00000000   0.03305986  -0.00000000           -0.00     4863.27       -0.00
  -0.00000000  -0.00000000   0.03305986           -0.00       -0.00     4863.27


     Writing all to output data dir ./tmp/Li_preselected_3.save/ :
     XML data file, charge density, pseudopotentials, collected wavefunctions

     init_run     :      0.17s CPU      0.17s WALL (       1 calls)
     electrons    :      0.81s CPU      0.83s WALL (       1 calls)
     forces       :      0.01s CPU      0.01s WALL (       1 calls)
     stress       :      0.04s CPU      0.05s WALL (       1 calls)

     Called by init_run:
     wfcinit      :      0.06s CPU      0.06s WALL (       1 calls)
     potinit      :      0.03s CPU      0.03s WALL (       1 calls)
     hinit0       :      0.08s CPU      0.08s WALL (       1 calls)

     Called by electrons:
     c_bands      :      0.58s CPU      0.60s WALL (       6 calls)
     sum_band     :      0.11s CPU      0.11s WALL (       6 calls)
     v_of_rho     :      0.01s CPU      0.01s WALL (       6 calls)
     newd         :      0.00s CPU      0.01s WALL (       6 calls)
     PAW_pot      :      0.13s CPU      0.13s WALL (       6 calls)
     mix_rho      :      0.00s CPU      0.00s WALL (       6 calls)

     Called by c_bands:
     init_us_2    :      0.03s CPU      0.03s WALL (     975 calls)
     cegterg      :      0.56s CPU      0.57s WALL (     390 calls)

     Called by *egterg:
     cdiaghg      :      0.04s CPU      0.04s WALL (    1262 calls)
     h_psi        :      0.47s CPU      0.48s WALL (    1392 calls)
     s_psi        :      0.02s CPU      0.02s WALL (    1392 calls)
     g_psi        :      0.00s CPU      0.00s WALL (     937 calls)

     Called by h_psi:
     h_psi:calbec :      0.02s CPU      0.02s WALL (    1392 calls)
     vloc_psi     :      0.44s CPU      0.45s WALL (    1392 calls)
     add_vuspsi   :      0.02s CPU      0.02s WALL (    1392 calls)

     General routines
     calbec       :      0.02s CPU      0.03s WALL (    2107 calls)
     fft          :      0.00s CPU      0.00s WALL (      85 calls)
     ffts         :      0.00s CPU      0.00s WALL (      12 calls)
     fftw         :      0.46s CPU      0.46s WALL (   17290 calls)
     interpolate  :      0.00s CPU      0.00s WALL (       6 calls)

     Parallel routines

     PWSCF        :      1.06s CPU      1.11s WALL


   This run was terminated on:  16: 3:24  18Mar2025            

=------------------------------------------------------------------------------=
   JOB DONE.
=------------------------------------------------------------------------------=
Note: The following floating-point exceptions are signalling: IEEE_INVALID_FLAG IEEE_DIVIDE_BY_ZERO IEEE_OVERFLOW_FLAG IEEE_UNDERFLOW_FLAG
