BEGIN_CFG
 Size
    2
 Supercell
   5.395171      0.000000      0.000000
   0.000000      5.395171      0.000000
   0.000000      0.000000      5.395171
 AtomData:  id    type    cartes_x      cartes_y      cartes_z           fx          fy          fz
            1     0       0.391668      4.910955      4.916026           -0.006717      0.034531      0.021633
            2     0       1.894174      2.590740      3.137637           0.006717      -0.034531      -0.021633
 PlusStress: xx          yy          zz          yz          xz          xy
         -0.041676   -0.043361   -0.042523    0.000663   -0.000719   -0.000591
 Energy
    -405.698600
END_CFG

BEGIN_CFG
 Size
    2
 Supercell
   5.046232      0.000000      0.000000
   0.000000      5.046232      0.000000
   0.000000      0.000000      5.046232
 AtomData:  id    type    cartes_x      cartes_y      cartes_z           fx          fy          fz
            1     0       4.328446      0.513197      0.575069           0.307090      -0.334609      -0.299586
            2     0       2.844879      2.258209      2.015526           -0.307090      0.334609      0.299586
 PlusStress: xx          yy          zz          yz          xz          xy
         -0.049094   -0.048465   -0.049149    0.003878   -0.003662   -0.003952
 Energy
    -405.829325
END_CFG

BEGIN_CFG
 Size
    2
 Supercell
   4.906582      0.000000      0.000000
   0.000000      4.906582      0.000000
   0.000000      0.000000      4.906582
 AtomData:  id    type    cartes_x      cartes_y      cartes_z           fx          fy          fz
            1     0       0.459055      0.175381      4.322429           -0.176154      -0.194329      0.167459
            2     0       1.883156      1.783665      2.317791           0.176154      0.194329      -0.167459
 PlusStress: xx          yy          zz          yz          xz          xy
         -0.055236   -0.055267   -0.054876   -0.002290   -0.002177    0.002587
 Energy
    -406.048942
END_CFG

BEGIN_CFG
 Size
    2
 Supercell
   5.073220      0.000000      0.000000
   0.000000      5.073220      0.000000
   0.000000      0.000000      5.073220
 AtomData:  id    type    cartes_x      cartes_y      cartes_z           fx          fy          fz
            1     0       0.017807      0.572137      0.046237           -0.002542      -0.006769      0.003270
            2     0       2.040292      2.769258      3.066376           0.002542      0.006769      -0.003270
 PlusStress: xx          yy          zz          yz          xz          xy
         -0.053362   -0.053845   -0.053443   -0.000320   -0.000416    0.000330
 Energy
    -405.978578
END_CFG

BEGIN_CFG
 Size
    2
 Supercell
   4.774552      0.000000      0.000000
   0.000000      4.774552      0.000000
   0.000000      0.000000      4.774552
 AtomData:  id    type    cartes_x      cartes_y      cartes_z           fx          fy          fz
            1     0       4.599250      0.540651      0.101154           -0.087043      -0.097651      0.082658
            2     0       1.745572      2.253909      2.917743           0.087043      0.097651      -0.082658
 PlusStress: xx          yy          zz          yz          xz          xy
         -0.062263   -0.061888   -0.062341   -0.001285   -0.001107    0.001348
 Energy
    -406.261858
END_CFG

BEGIN_CFG
 Size
    2
 Supercell
   4.789105      0.000000      0.000000
   0.000000      4.789105      0.000000
   0.000000      0.000000      4.789105
 AtomData:  id    type    cartes_x      cartes_y      cartes_z           fx          fy          fz
            1     0       4.786667      4.155324      4.512941           0.001129      0.011832      0.002278
            2     0       2.407210      2.072993      2.157568           -0.001129      -0.011832      -0.002278
 PlusStress: xx          yy          zz          yz          xz          xy
         -0.064133   -0.063466   -0.064124    0.000045    0.000002    0.000017
 Energy
    -406.283602
END_CFG

BEGIN_CFG
 Size
    2
 Supercell
   5.797716      0.000000      0.000000
   0.000000      5.797716      0.000000
   0.000000      0.000000      5.797716
 AtomData:  id    type    cartes_x      cartes_y      cartes_z           fx          fy          fz
            1     0       0.489959      5.037908      4.967402           0.064690      -0.021829      -0.100995
            2     0       2.919892      2.274914      2.912981           -0.064690      0.021829      0.100995
 PlusStress: xx          yy          zz          yz          xz          xy
         -0.036064   -0.036506   -0.035280   -0.000062    0.000200    0.000038
 Energy
    -405.313530
END_CFG

BEGIN_CFG
 Size
    2
 Supercell
   5.435336      0.000000      0.000000
   0.000000      5.435336      0.000000
   0.000000      0.000000      5.435336
 AtomData:  id    type    cartes_x      cartes_y      cartes_z           fx          fy          fz
            1     0       0.211554      0.706072      0.808696           0.201019      -0.142951      -0.150172
            2     0       3.387415      1.928131      2.091838           -0.201019      0.142951      0.150172
 PlusStress: xx          yy          zz          yz          xz          xy
         -0.038731   -0.038482   -0.038586    0.001578   -0.001898   -0.001817
 Energy
    -405.599148
END_CFG

BEGIN_CFG
 Size
    2
 Supercell
   5.049566      0.000000      0.000000
   0.000000      5.049566      0.000000
   0.000000      0.000000      5.049566
 AtomData:  id    type    cartes_x      cartes_y      cartes_z           fx          fy          fz
            1     0       4.734008      4.534202      0.535163           0.164390      0.169308      -0.165292
            2     0       3.072918      2.793581      2.209488           -0.164390      -0.169308      0.165292
 PlusStress: xx          yy          zz          yz          xz          xy
         -0.050641   -0.050633   -0.050642   -0.002376   -0.002362    0.002372
 Energy
    -405.935536
END_CFG

BEGIN_CFG
 Size
    2
 Supercell
   6.084953      0.000000      0.000000
   0.000000      6.084953      0.000000
   0.000000      0.000000      6.084953
 AtomData:  id    type    cartes_x      cartes_y      cartes_z           fx          fy          fz
            1     0       0.672728      0.675704      5.635829           0.034893      -0.024354      -0.107135
            2     0       3.524180      3.850303      3.301817           -0.034893      0.024354      0.107135
 PlusStress: xx          yy          zz          yz          xz          xy
         -0.031370   -0.031408   -0.030688   -0.000084    0.000121    0.000027
 Energy
    -405.031701
END_CFG

BEGIN_CFG
 Size
    2
 Supercell
   4.907958      0.000000      0.000000
   0.000000      4.907958      0.000000
   0.000000      0.000000      4.907958
 AtomData:  id    type    cartes_x      cartes_y      cartes_z           fx          fy          fz
            1     0       0.376033      4.270910      4.782947           -0.155461      0.123085      0.003915
            2     0       2.087865      3.013619      2.338887           0.155461      -0.123085      -0.003915
 PlusStress: xx          yy          zz          yz          xz          xy
         -0.055938   -0.055397   -0.055820    0.000045   -0.000051   -0.001982
 Energy
    -406.075245
END_CFG

BEGIN_CFG
 Size
    2
 Supercell
   6.285670      0.000000      0.000000
   0.000000      6.285670      0.000000
   0.000000      0.000000      6.285670
 AtomData:  id    type    cartes_x      cartes_y      cartes_z           fx          fy          fz
            1     0       0.268467      5.372262      5.925533           -0.077973      -0.104444      -0.131850
            2     0       3.852701      2.851985      3.652886           0.077973      0.104444      0.131850
 PlusStress: xx          yy          zz          yz          xz          xy
         -0.028036   -0.027772   -0.027287   -0.000454   -0.000341   -0.000269
 Energy
    -404.942560
END_CFG

BEGIN_CFG
 Size
    2
 Supercell
   6.145121      0.000000      0.000000
   0.000000      6.145121      0.000000
   0.000000      0.000000      6.145121
 AtomData:  id    type    cartes_x      cartes_y      cartes_z           fx          fy          fz
            1     0       6.008410      0.277477      0.285810           0.056546      -0.097057      0.091887
            2     0       2.614577      3.958539      2.789154           -0.056546      0.097057      -0.091887
 PlusStress: xx          yy          zz          yz          xz          xy
         -0.030258   -0.029881   -0.029941    0.000297   -0.000171    0.000180
 Energy
    -405.008869
END_CFG

BEGIN_CFG
 Size
    2
 Supercell
   4.963363      0.000000      0.000000
   0.000000      4.963363      0.000000
   0.000000      0.000000      4.963363
 AtomData:  id    type    cartes_x      cartes_y      cartes_z           fx          fy          fz
            1     0       4.296252      0.391446      0.005112           -0.000263      0.004419      0.001576
            2     0       1.843234      2.559834      2.411475           0.000263      -0.004419      -0.001576
 PlusStress: xx          yy          zz          yz          xz          xy
         -0.058150   -0.057521   -0.058113    0.000049   -0.000006   -0.000018
 Energy
    -406.095591
END_CFG

BEGIN_CFG
 Size
    2
 Supercell
   5.069198      0.000000      0.000000
   0.000000      5.069198      0.000000
   0.000000      0.000000      5.069198
 AtomData:  id    type    cartes_x      cartes_y      cartes_z           fx          fy          fz
            1     0       0.571821      4.840354      0.319735           -0.130132      0.159864      0.102052
            2     0       1.828455      3.273977      3.099799           0.130132      -0.159864      -0.102052
 PlusStress: xx          yy          zz          yz          xz          xy
         -0.049505   -0.049993   -0.049541    0.001256   -0.001086   -0.001967
 Energy
    -405.921570
END_CFG

BEGIN_CFG
 Size
    2
 Supercell
   5.027869      0.000000      0.000000
   0.000000      5.027869      0.000000
   0.000000      0.000000      5.027869
 AtomData:  id    type    cartes_x      cartes_y      cartes_z           fx          fy          fz
            1     0       0.274818      0.476536      4.977938           0.002850      0.000300      -0.008887
            2     0       2.706271      2.978002      2.896168           -0.002850      -0.000300      0.008887
 PlusStress: xx          yy          zz          yz          xz          xy
         -0.056055   -0.056101   -0.055127   -0.000009   -0.000059    0.000003
 Energy
    -406.024070
END_CFG

BEGIN_CFG
 Size
    2
 Supercell
   6.248892      0.000000      0.000000
   0.000000      6.248892      0.000000
   0.000000      0.000000      6.248892
 AtomData:  id    type    cartes_x      cartes_y      cartes_z           fx          fy          fz
            1     0       0.448614      6.008266      5.355901           0.047553      0.079634      -0.145174
            2     0       3.320262      2.463988      3.489013           -0.047553      -0.079634      0.145174
 PlusStress: xx          yy          zz          yz          xz          xy
         -0.028922   -0.028735   -0.026841    0.000365    0.000230   -0.000116
 Energy
    -404.991213
END_CFG

BEGIN_CFG
 Size
    2
 Supercell
   5.950966      0.000000      0.000000
   0.000000      5.950966      0.000000
   0.000000      0.000000      5.950966
 AtomData:  id    type    cartes_x      cartes_y      cartes_z           fx          fy          fz
            1     0       5.486058      0.107302      5.365504           -0.001470      -0.106554      -0.042340
            2     0       2.519823      3.841021      2.634903           0.001470      0.106554      0.042340
 PlusStress: xx          yy          zz          yz          xz          xy
         -0.033802   -0.032850   -0.033661   -0.000140   -0.000002   -0.000006
 Energy
    -405.147664
END_CFG

BEGIN_CFG
 Size
    2
 Supercell
   5.921755      0.000000      0.000000
   0.000000      5.921755      0.000000
   0.000000      0.000000      5.921755
 AtomData:  id    type    cartes_x      cartes_y      cartes_z           fx          fy          fz
            1     0       5.678176      0.374468      0.667861           0.077358      0.114011      0.062358
            2     0       2.188089      2.437975      3.211196           -0.077358      -0.114011      -0.062358
 PlusStress: xx          yy          zz          yz          xz          xy
         -0.033731   -0.032931   -0.033914   -0.000218   -0.000140   -0.000270
 Energy
    -405.223331
END_CFG

BEGIN_CFG
 Size
    2
 Supercell
   5.738554      0.000000      0.000000
   0.000000      5.738554      0.000000
   0.000000      0.000000      5.738554
 AtomData:  id    type    cartes_x      cartes_y      cartes_z           fx          fy          fz
            1     0       0.351980      4.910647      5.238221           0.077367      -0.025647      -0.083335
            2     0       2.607553      2.214629      3.046352           -0.077367      0.025647      0.083335
 PlusStress: xx          yy          zz          yz          xz          xy
         -0.036894   -0.037602   -0.036764   -0.000056    0.000184    0.000051
 Energy
    -405.365997
END_CFG

BEGIN_CFG
 Size
    2
 Supercell
   5.242133      0.000000      0.000000
   0.000000      5.242133      0.000000
   0.000000      0.000000      5.242133
 AtomData:  id    type    cartes_x      cartes_y      cartes_z           fx          fy          fz
            1     0       0.144819      0.055483      5.232713           0.000122      -0.026558      0.012498
            2     0       2.765257      3.062176      2.461344           -0.000122      0.026558      -0.012498
 PlusStress: xx          yy          zz          yz          xz          xy
         -0.049636   -0.048929   -0.049503   -0.000033    0.000000    -0.000000
 Energy
    -405.810575
END_CFG

BEGIN_CFG
 Size
    2
 Supercell
   6.020076      0.000000      0.000000
   0.000000      6.020076      0.000000
   0.000000      0.000000      6.020076
 AtomData:  id    type    cartes_x      cartes_y      cartes_z           fx          fy          fz
            1     0       5.178157      5.849413      5.772284           0.001647      -0.009141      -0.128794
            2     0       2.159010      2.887897      3.909022           -0.001647      0.009141      0.128794
 PlusStress: xx          yy          zz          yz          xz          xy
         -0.032596   -0.032591   -0.030619   -0.000036    0.000006    0.000001
 Energy
    -405.137160
END_CFG

BEGIN_CFG
 Size
    2
 Supercell
   6.230265      0.000000      0.000000
   0.000000      6.230265      0.000000
   0.000000      0.000000      6.230265
 AtomData:  id    type    cartes_x      cartes_y      cartes_z           fx          fy          fz
            1     0       0.329307      5.413901      0.692295           0.113108      -0.148306      0.125192
            2     0       2.744619      3.414017      3.012402           -0.113108      0.148306      -0.125192
 PlusStress: xx          yy          zz          yz          xz          xy
         -0.028441   -0.027330   -0.028231    0.000560   -0.000430    0.000510
 Energy
    -405.059108
END_CFG

BEGIN_CFG
 Size
    2
 Supercell
   5.027711      0.000000      0.000000
   0.000000      5.027711      0.000000
   0.000000      0.000000      5.027711
 AtomData:  id    type    cartes_x      cartes_y      cartes_z           fx          fy          fz
            1     0       4.780604      4.749472      0.588991           0.041139      0.043123      0.010062
            2     0       3.080705      2.983529      3.190977           -0.041139      -0.043123      -0.010062
 PlusStress: xx          yy          zz          yz          xz          xy
         -0.053233   -0.053364   -0.054431    0.000219    0.000219    0.001060
 Energy
    -406.013043
END_CFG

BEGIN_CFG
 Size
    2
 Supercell
   5.435759      0.000000      0.000000
   0.000000      5.435759      0.000000
   0.000000      0.000000      5.435759
 AtomData:  id    type    cartes_x      cartes_y      cartes_z           fx          fy          fz
            1     0       0.279143      0.022064      4.947671           0.016001      -0.006907      -0.007473
            2     0       2.128665      3.450587      2.952900           -0.016001      0.006907      0.007473
 PlusStress: xx          yy          zz          yz          xz          xy
         -0.042220   -0.042580   -0.042556    0.000507   -0.000487   -0.000488
 Energy
    -405.652008
END_CFG

BEGIN_CFG
 Size
    2
 Supercell
   6.328428      0.000000      0.000000
   0.000000      6.328428      0.000000
   0.000000      0.000000      6.328428
 AtomData:  id    type    cartes_x      cartes_y      cartes_z           fx          fy          fz
            1     0       5.450169      6.114305      0.870874           -0.129135      -0.031895      0.144076
            2     0       3.065889      3.124237      3.056960           0.129135      0.031895      -0.144076
 PlusStress: xx          yy          zz          yz          xz          xy
         -0.026987   -0.027785   -0.026530    0.000156    0.000581   -0.000136
 Energy
    -404.918209
END_CFG

BEGIN_CFG
 Size
    2
 Supercell
   5.686377      0.000000      0.000000
   0.000000      5.686377      0.000000
   0.000000      0.000000      5.686377
 AtomData:  id    type    cartes_x      cartes_y      cartes_z           fx          fy          fz
            1     0       0.813641      4.872321      5.405499           0.074590      -0.073413      0.042152
            2     0       2.894173      2.780348      2.149115           -0.074590      0.073413      -0.042152
 PlusStress: xx          yy          zz          yz          xz          xy
         -0.037529   -0.037557   -0.038230    0.000042   -0.000044    0.000118
 Energy
    -405.432988
END_CFG

BEGIN_CFG
 Size
    2
 Supercell
   4.861232      0.000000      0.000000
   0.000000      4.861232      0.000000
   0.000000      0.000000      4.861232
 AtomData:  id    type    cartes_x      cartes_y      cartes_z           fx          fy          fz
            1     0       4.598851      4.729108      0.505106           -0.058536      0.059979      -0.021534
            2     0       1.709559      3.135154      2.792257           0.058536      -0.059979      0.021534
 PlusStress: xx          yy          zz          yz          xz          xy
         -0.059257   -0.058493   -0.059932   -0.000415    0.000353   -0.001083
 Energy
    -406.187846
END_CFG

BEGIN_CFG
 Size
    2
 Supercell
   5.086291      0.000000      0.000000
   0.000000      5.086291      0.000000
   0.000000      0.000000      5.086291
 AtomData:  id    type    cartes_x      cartes_y      cartes_z           fx          fy          fz
            1     0       4.530618      4.332060      0.362876           0.156201      0.138068      -0.165457
            2     0       2.491219      2.972052      2.022701           -0.156201      -0.138068      0.165457
 PlusStress: xx          yy          zz          yz          xz          xy
         -0.049382   -0.049219   -0.049561   -0.002097   -0.002113    0.001886
 Energy
    -405.899862
END_CFG

BEGIN_CFG
 Size
    2
 Supercell
   6.146497      0.000000      0.000000
   0.000000      6.146497      0.000000
   0.000000      0.000000      6.146497
 AtomData:  id    type    cartes_x      cartes_y      cartes_z           fx          fy          fz
            1     0       0.737752      5.570908      0.185053           0.116960      -0.128131      0.002143
            2     0       2.196948      3.915724      3.241976           -0.116960      0.128131      -0.002143
 PlusStress: xx          yy          zz          yz          xz          xy
         -0.026643   -0.027321   -0.030397    0.000006   -0.000006    0.000446
 Energy
    -405.240369
END_CFG

BEGIN_CFG
 Size
    2
 Supercell
   4.752009      0.000000      0.000000
   0.000000      4.752009      0.000000
   0.000000      0.000000      4.752009
 AtomData:  id    type    cartes_x      cartes_y      cartes_z           fx          fy          fz
            1     0       4.744154      0.605563      0.394460           0.343106      -0.351100      -0.330390
            2     0       2.957137      2.111199      1.748654           -0.343106      0.351100      0.330390
 PlusStress: xx          yy          zz          yz          xz          xy
         -0.057669   -0.058896   -0.059351    0.004352   -0.004207   -0.004413
 Energy
    -406.092052
END_CFG

BEGIN_CFG
 Size
    2
 Supercell
   5.532175      0.000000      0.000000
   0.000000      5.532175      0.000000
   0.000000      0.000000      5.532175
 AtomData:  id    type    cartes_x      cartes_y      cartes_z           fx          fy          fz
            1     0       5.245144      0.369311      0.788706           -0.002098      0.010298      0.055407
            2     0       2.500255      3.040865      3.086898           0.002098      -0.010298      -0.055407
 PlusStress: xx          yy          zz          yz          xz          xy
         -0.042339   -0.042301   -0.041639   -0.000013    0.000003    0.000001
 Energy
    -405.514549
END_CFG

BEGIN_CFG
 Size
    2
 Supercell
   5.621871      0.000000      0.000000
   0.000000      5.621871      0.000000
   0.000000      0.000000      5.621871
 AtomData:  id    type    cartes_x      cartes_y      cartes_z           fx          fy          fz
            1     0       0.367676      0.517786      5.007198           0.074693      0.009220      -0.022970
            2     0       2.546218      3.259628      2.376067           -0.074693      -0.009220      0.022970
 PlusStress: xx          yy          zz          yz          xz          xy
         -0.039308   -0.040249   -0.040146    0.000006    0.000047   -0.000019
 Energy
    -405.441641
END_CFG

BEGIN_CFG
 Size
    2
 Supercell
   6.045053      0.000000      0.000000
   0.000000      6.045053      0.000000
   0.000000      0.000000      6.045053
 AtomData:  id    type    cartes_x      cartes_y      cartes_z           fx          fy          fz
            1     0       0.239898      5.997092      0.463547           0.014692      -0.115791      0.133443
            2     0       3.181947      3.765252      2.247889           -0.014692      0.115791      -0.133443
 PlusStress: xx          yy          zz          yz          xz          xy
         -0.032131   -0.031100   -0.029736    0.000476   -0.000054    0.000042
 Energy
    -405.178884
END_CFG

BEGIN_CFG
 Size
    2
 Supercell
   4.856575      0.000000      0.000000
   0.000000      4.856575      0.000000
   0.000000      0.000000      4.856575
 AtomData:  id    type    cartes_x      cartes_y      cartes_z           fx          fy          fz
            1     0       4.364172      0.323190      0.152652           0.023384      0.021957      -0.002655
            2     0       2.361043      3.114526      2.527031           -0.023384      -0.021957      0.002655
 PlusStress: xx          yy          zz          yz          xz          xy
         -0.060789   -0.061002   -0.061771   -0.000066   -0.000074    0.000447
 Energy
    -406.195746
END_CFG

BEGIN_CFG
 Size
    2
 Supercell
   5.009295      0.000000      0.000000
   0.000000      5.009295      0.000000
   0.000000      0.000000      5.009295
 AtomData:  id    type    cartes_x      cartes_y      cartes_z           fx          fy          fz
            1     0       0.726879      0.276784      0.553121           -0.048727      -0.062692      -0.018999
            2     0       2.224197      2.152013      2.933594           0.048727      0.062692      0.018999
 PlusStress: xx          yy          zz          yz          xz          xy
         -0.053163   -0.053907   -0.054590    0.000352    0.000344    0.001164
 Energy
    -406.026519
END_CFG

BEGIN_CFG
 Size
    2
 Supercell
   6.031612      0.000000      0.000000
   0.000000      6.031612      0.000000
   0.000000      0.000000      6.031612
 AtomData:  id    type    cartes_x      cartes_y      cartes_z           fx          fy          fz
            1     0       0.357596      0.593028      0.774037           0.039440      0.104046      0.121419
            2     0       3.120961      2.890608      2.274183           -0.039440      -0.104046      -0.121419
 PlusStress: xx          yy          zz          yz          xz          xy
         -0.032271   -0.031508   -0.028937   -0.000388   -0.000142   -0.000094
 Energy
    -405.221984
END_CFG

BEGIN_CFG
 Size
    2
 Supercell
   5.101055      0.000000      0.000000
   0.000000      5.101055      0.000000
   0.000000      0.000000      5.101055
 AtomData:  id    type    cartes_x      cartes_y      cartes_z           fx          fy          fz
            1     0       4.576824      4.858540      4.592842           -0.016665      0.000523      0.001681
            2     0       2.940309      2.347291      2.127609           0.016665      -0.000523      -0.001681
 PlusStress: xx          yy          zz          yz          xz          xy
         -0.051253   -0.053213   -0.053184    0.000008    0.000100    0.000047
 Energy
    -405.954378
END_CFG

BEGIN_CFG
 Size
    2
 Supercell
   5.858466      0.000000      0.000000
   0.000000      5.858466      0.000000
   0.000000      0.000000      5.858466
 AtomData:  id    type    cartes_x      cartes_y      cartes_z           fx          fy          fz
            1     0       0.796605      5.615650      5.744548           0.105811      0.008520      -0.097349
            2     0       2.432775      2.585130      3.725515           -0.105811      -0.008520      0.097349
 PlusStress: xx          yy          zz          yz          xz          xy
         -0.032395   -0.035104   -0.033719    0.000012    0.000296   -0.000023
 Energy
    -405.349777
END_CFG

BEGIN_CFG
 Size
    2
 Supercell
   5.233455      0.000000      0.000000
   0.000000      5.233455      0.000000
   0.000000      0.000000      5.233455
 AtomData:  id    type    cartes_x      cartes_y      cartes_z           fx          fy          fz
            1     0       5.020291      0.203278      0.671201           0.045364      -0.048169      -0.028935
            2     0       2.797030      2.065896      2.180890           -0.045364      0.048169      0.028935
 PlusStress: xx          yy          zz          yz          xz          xy
         -0.047449   -0.047008   -0.046159    0.000959   -0.000751   -0.000816
 Energy
    -405.830387
END_CFG

