 # Bcc Li.
  
          16  atoms
           1  atom types
 
      0.000000000000       7.020000000000  xlo xhi
      0.000000000000       7.020000000000  ylo yhi
      0.000000000000       7.020000000000  zlo zhi
 
Masses
 
            1   6.94000000              # Li
 
Atoms # atomic
 
         1    1        0.000000000000       0.000000000000       0.000000000000
         2    1        1.755000000000       1.755000000000       1.755000000000
         3    1        3.510000000000       0.000000000000       0.000000000000
         4    1        5.265000000000       1.755000000000       1.755000000000
         5    1        0.000000000000       3.510000000000       0.000000000000
         6    1        1.755000000000       5.265000000000       1.755000000000
         7    1        3.510000000000       3.510000000000       0.000000000000
         8    1        5.265000000000       5.265000000000       1.755000000000
         9    1        0.000000000000       0.000000000000       3.510000000000
        10    1        1.755000000000       1.755000000000       5.265000000000
        11    1        3.510000000000       0.000000000000       3.510000000000
        12    1        5.265000000000       1.755000000000       5.265000000000
        13    1        0.000000000000       3.510000000000       3.510000000000
        14    1        1.755000000000       5.265000000000       5.265000000000
        15    1        3.510000000000       3.510000000000       3.510000000000
        16    1        5.265000000000       5.265000000000       5.265000000000
