[Williams-MacBook-Air.local:93605] shmem: mmap: an error occurred while determining whether or not /var/folders/hy/k_vp1md94sz2dr40dtrs6ln80000gn/T//ompi.Williams-MacBook-Air.501/jf.0/1351745536/sm_segment.Williams-MacBook-Air.501.50920000.0 could be created.

     Program PWSCF v.7.3.1 starts on 28Jan2025 at  9:11:12 

     This program is part of the open-source Quantum ESPRESSO suite
     for quantum simulation of materials; please cite
         "P. Giannozzi et al., J. Phys.:Condens. Matter 21 395502 (2009);
         "P. Giannozzi et al., J. Phys.:Condens. Matter 29 465901 (2017);
         "P. Giannozzi et al., J. Chem. Phys. 152 154105 (2020);
          URL http://www.quantum-espresso.org", 
     in publications or presentations arising from this work. More details at
     http://www.quantum-espresso.org/quote

     Parallel version (MPI), running on     1 processors

     MPI processes distributed on     1 nodes
     0 MiB available memory on the printing compute node when the environment starts

     Reading input from Li_config_11.in

     Current dimensions of program PWSCF are:
     Max number of different atomic species (ntypx) = 10
     Max number of k-points (npk) =  40000
     Max angular momentum in pseudopotentials (lmaxx) =  4

     Subspace diagonalization in iterative solution of the eigenvalue problem:
     a serial algorithm will be used


     G-vector sticks info
     --------------------
     sticks:   dense  smooth     PW     G-vecs:    dense   smooth      PW
     Sum        3397    1361    401               150117    37993    6031

     Using Slab Decomposition



     bravais-lattice index     =            1
     lattice parameter (alat)  =      11.9590  a.u.
     unit-cell volume          =    1710.3536 (a.u.)^3
     number of atoms/cell      =            2
     number of atomic types    =            1
     number of electrons       =         6.00
     number of Kohn-Sham states=            7
     kinetic-energy cutoff     =      30.0000  Ry
     charge density cutoff     =     300.0000  Ry
     scf convergence threshold =      1.0E-08
     mixing beta               =       0.7000
     number of iterations used =            8  plain     mixing
     Exchange-correlation= SLA  PW   PBX  PBC
                           (   1   4   3   4   0   0   0)

     celldm(1)=  11.959012  celldm(2)=   0.000000  celldm(3)=   0.000000
     celldm(4)=   0.000000  celldm(5)=   0.000000  celldm(6)=   0.000000

     crystal axes: (cart. coord. in units of alat)
               a(1) = (   1.000000   0.000000   0.000000 )  
               a(2) = (   0.000000   1.000000   0.000000 )  
               a(3) = (   0.000000   0.000000   1.000000 )  

     reciprocal axes: (cart. coord. in units 2 pi/alat)
               b(1) = (  1.000000  0.000000  0.000000 )  
               b(2) = (  0.000000  1.000000  0.000000 )  
               b(3) = (  0.000000  0.000000  1.000000 )  


     PseudoPot. # 1 for Li read from file:
     ../../pseudopotentials/Li.pbe-s-kjpaw_psl.1.0.0.UPF
     MD5 check sum: d3662511b3860c829f7212fdb89d6128
     Pseudo is Projector augmented-wave, Zval =  3.0
     Generated using &quot;atomic&quot; code by A. Dal Corso  v.6.3
     Shape of augmentation charge: PSQ
     Using radial grid of 1017 points,  4 beta functions with: 
                l(1) =   0
                l(2) =   0
                l(3) =   1
                l(4) =   1
     Q(r) pseudized with 0 coefficients 


     atomic species   valence    mass     pseudopotential
     Li                3.00     6.94000     Li( 1.00)

     No symmetry found



   Cartesian axes

     site n.     atom                  positions (alat units)
         1        Li     tau(   1) = (   0.8612200   0.9661650   0.1376130  )
         2        Li     tau(   2) = (   0.4844630   0.4936830   0.4830520  )

     number of k points=    36  Gaussian smearing, width (Ry)=  0.0100
                       cart. coord. in units 2pi/alat
        k(    1) = (   0.0000000   0.0000000   0.0000000), wk =   0.0312500
        k(    2) = (   0.0000000   0.0000000   0.2500000), wk =   0.0625000
        k(    3) = (   0.0000000   0.0000000  -0.5000000), wk =   0.0312500
        k(    4) = (   0.0000000   0.2500000   0.2500000), wk =   0.0625000
        k(    5) = (   0.0000000   0.2500000  -0.5000000), wk =   0.0625000
        k(    6) = (   0.0000000  -0.5000000  -0.5000000), wk =   0.0312500
        k(    7) = (   0.2500000   0.2500000   0.2500000), wk =   0.0625000
        k(    8) = (   0.2500000   0.2500000  -0.5000000), wk =   0.0625000
        k(    9) = (   0.2500000  -0.5000000  -0.5000000), wk =   0.0625000
        k(   10) = (  -0.5000000  -0.5000000  -0.5000000), wk =   0.0312500
        k(   11) = (   0.2500000   0.0000000   0.0000000), wk =   0.0625000
        k(   12) = (   0.0000000   0.2500000   0.0000000), wk =   0.0625000
        k(   13) = (  -0.5000000   0.0000000   0.0000000), wk =   0.0312500
        k(   14) = (   0.0000000  -0.5000000   0.0000000), wk =   0.0312500
        k(   15) = (   0.0000000  -0.2500000   0.2500000), wk =   0.0625000
        k(   16) = (   0.2500000   0.0000000  -0.2500000), wk =   0.0625000
        k(   17) = (  -0.2500000   0.0000000  -0.2500000), wk =   0.0625000
        k(   18) = (   0.2500000  -0.2500000   0.0000000), wk =   0.0625000
        k(   19) = (  -0.2500000  -0.2500000   0.0000000), wk =   0.0625000
        k(   20) = (   0.2500000   0.0000000   0.5000000), wk =   0.0625000
        k(   21) = (  -0.5000000  -0.2500000   0.0000000), wk =   0.0625000
        k(   22) = (   0.0000000  -0.5000000   0.2500000), wk =   0.0625000
        k(   23) = (   0.2500000  -0.5000000   0.0000000), wk =   0.0625000
        k(   24) = (  -0.5000000   0.0000000   0.2500000), wk =   0.0625000
        k(   25) = (  -0.5000000   0.0000000   0.5000000), wk =   0.0312500
        k(   26) = (  -0.5000000   0.5000000   0.0000000), wk =   0.0312500
        k(   27) = (  -0.2500000  -0.2500000   0.2500000), wk =   0.0625000
        k(   28) = (  -0.2500000   0.2500000  -0.2500000), wk =   0.0625000
        k(   29) = (   0.2500000  -0.2500000  -0.2500000), wk =   0.0625000
        k(   30) = (  -0.2500000   0.2500000   0.5000000), wk =   0.0625000
        k(   31) = (  -0.5000000  -0.2500000   0.2500000), wk =   0.0625000
        k(   32) = (   0.5000000  -0.2500000  -0.2500000), wk =   0.0625000
        k(   33) = (  -0.2500000  -0.5000000   0.2500000), wk =   0.0625000
        k(   34) = (  -0.2500000   0.5000000  -0.2500000), wk =   0.0625000
        k(   35) = (  -0.5000000   0.2500000   0.5000000), wk =   0.0625000
        k(   36) = (  -0.5000000   0.5000000   0.2500000), wk =   0.0625000

     Dense  grid:   150117 G-vectors     FFT dimensions: (  72,  72,  72)

     Smooth grid:    37993 G-vectors     FFT dimensions: (  45,  45,  45)

     Estimated max dynamical RAM per process >     222.03 MB

     Initial potential from superposition of free atoms

     starting charge       5.9908, renormalised to       6.0000
     Starting wfcs are   10 randomized atomic wfcs
     Checking if some PAW data can be deallocated... 

     total cpu time spent up to now is        0.8 secs

     Self-consistent Calculation

     iteration #  1     ecut=    30.00 Ry     beta= 0.70
     Davidson diagonalization with overlap
     ethr =  1.00E-02,  avg # of iterations =  2.0

     Threshold (ethr) on eigenvalues was too large:
     Diagonalizing with lowered threshold

     Davidson diagonalization with overlap
     ethr =  3.52E-04,  avg # of iterations =  1.2

     total cpu time spent up to now is        2.8 secs

     total energy              =     -29.75945065 Ry
     estimated scf accuracy    <       0.02231991 Ry

     iteration #  2     ecut=    30.00 Ry     beta= 0.70
     Davidson diagonalization with overlap
     ethr =  3.72E-04,  avg # of iterations =  1.0

     total cpu time spent up to now is        3.8 secs

     total energy              =     -29.76067226 Ry
     estimated scf accuracy    <       0.00118648 Ry

     iteration #  3     ecut=    30.00 Ry     beta= 0.70
     Davidson diagonalization with overlap
     ethr =  1.98E-05,  avg # of iterations =  1.9

     total cpu time spent up to now is        4.8 secs

     total energy              =     -29.76089616 Ry
     estimated scf accuracy    <       0.00004550 Ry

     iteration #  4     ecut=    30.00 Ry     beta= 0.70
     Davidson diagonalization with overlap
     ethr =  7.58E-07,  avg # of iterations =  4.6

     total cpu time spent up to now is        6.3 secs

     total energy              =     -29.76092216 Ry
     estimated scf accuracy    <       0.00000363 Ry

     iteration #  5     ecut=    30.00 Ry     beta= 0.70
     Davidson diagonalization with overlap
     ethr =  6.05E-08,  avg # of iterations =  2.7

     total cpu time spent up to now is        7.4 secs

     total energy              =     -29.76092426 Ry
     estimated scf accuracy    <       0.00000008 Ry

     iteration #  6     ecut=    30.00 Ry     beta= 0.70
     Davidson diagonalization with overlap
     ethr =  1.26E-09,  avg # of iterations =  3.1

     total cpu time spent up to now is        8.5 secs

     total energy              =     -29.76092435 Ry
     estimated scf accuracy    <       0.00000001 Ry

     iteration #  7     ecut=    30.00 Ry     beta= 0.70
     Davidson diagonalization with overlap
     ethr =  1.75E-10,  avg # of iterations =  3.0

     total cpu time spent up to now is        9.5 secs

     End of self-consistent calculation

          k = 0.0000 0.0000 0.0000 (  4729 PWs)   bands (ev):

   -51.9236 -51.9221  -3.1081  -0.1646  -0.1569  -0.0239   0.1338

          k = 0.0000 0.0000 0.2500 (  4757 PWs)   bands (ev):

   -51.9317 -51.9296  -2.9112  -1.1586   0.0079   0.1545   0.2969

          k = 0.0000 0.0000-0.5000 (  4748 PWs)   bands (ev):

   -51.9300 -51.9257  -2.5135  -1.9419   0.2605   0.3787   0.6249

          k = 0.0000 0.2500 0.2500 (  4741 PWs)   bands (ev):

   -51.9276 -51.9246  -2.7014  -1.1178  -0.8894   0.3140   0.5479

          k = 0.0000 0.2500-0.5000 (  4744 PWs)   bands (ev):

   -51.9294 -51.9246  -2.3093  -1.7322  -0.7026  -0.1013   0.5938

          k = 0.0000-0.5000-0.5000 (  4780 PWs)   bands (ev):

   -51.9426 -51.9315  -1.7564  -1.6557  -1.1302  -1.0327   0.8943

          k = 0.2500 0.2500 0.2500 (  4719 PWs)   bands (ev):

   -51.9221 -51.9182  -2.5013  -0.9995  -0.7229  -0.6731   0.4731

          k = 0.2500 0.2500-0.5000 (  4738 PWs)   bands (ev):

   -51.9273 -51.9239  -2.1161  -1.5361  -0.5512  -0.3899  -0.0910

          k = 0.2500-0.5000-0.5000 (  4736 PWs)   bands (ev):

   -51.9259 -51.9254  -1.5686  -1.4670  -0.9418  -0.8518   0.0897

          k =-0.5000-0.5000-0.5000 (  4680 PWs)   bands (ev):

   -51.9122 -51.9109  -1.1864  -1.0911  -0.7470  -0.7013  -0.4564

          k = 0.2500 0.0000 0.0000 (  4757 PWs)   bands (ev):

   -51.9355 -51.9258  -2.9067  -1.1933   0.0210   0.2181   0.2912

          k = 0.0000 0.2500 0.0000 (  4757 PWs)   bands (ev):

   -51.9328 -51.9285  -2.8981  -1.2566   0.1447   0.2004   0.3154

          k =-0.5000 0.0000 0.0000 (  4748 PWs)   bands (ev):

   -51.9334 -51.9224  -2.4706  -2.0149   0.3154   0.4532   0.5840

          k = 0.0000-0.5000 0.0000 (  4748 PWs)   bands (ev):

   -51.9291 -51.9266  -2.3191  -2.2186   0.4074   0.4662   0.7186

          k = 0.0000-0.2500 0.2500 (  4741 PWs)   bands (ev):

   -51.9286 -51.9236  -2.7020  -1.1212  -0.8766   0.2977   0.5104

          k = 0.2500 0.0000-0.2500 (  4741 PWs)   bands (ev):

   -51.9273 -51.9249  -2.7108  -1.0923  -0.8407   0.1817   0.4525

          k =-0.2500 0.0000-0.2500 (  4741 PWs)   bands (ev):

   -51.9291 -51.9232  -2.7098  -1.0740  -0.8839   0.1761   0.6138

          k = 0.2500-0.2500 0.0000 (  4741 PWs)   bands (ev):

   -51.9322 -51.9201  -2.6965  -1.1222  -0.9131   0.3644   0.5596

          k =-0.2500-0.2500 0.0000 (  4741 PWs)   bands (ev):

   -51.9292 -51.9230  -2.6970  -1.1256  -0.9004   0.3343   0.5345

          k = 0.2500 0.0000 0.5000 (  4744 PWs)   bands (ev):

   -51.9280 -51.9260  -2.3187  -1.7421  -0.6306  -0.0538   0.4245

          k =-0.5000-0.2500 0.0000 (  4744 PWs)   bands (ev):

   -51.9307 -51.9233  -2.2657  -1.8053  -0.6560  -0.1717   0.6905

          k = 0.0000-0.5000 0.2500 (  4744 PWs)   bands (ev):

   -51.9287 -51.9253  -2.1278  -2.0262  -0.3972  -0.2972   0.7326

          k = 0.2500-0.5000 0.0000 (  4744 PWs)   bands (ev):

   -51.9304 -51.9236  -2.1220  -2.0208  -0.4308  -0.3280   0.7644

          k =-0.5000 0.0000 0.2500 (  4744 PWs)   bands (ev):

   -51.9275 -51.9265  -2.2804  -1.8209  -0.5488  -0.0958   0.4658

          k =-0.5000 0.0000 0.5000 (  4780 PWs)   bands (ev):

   -51.9391 -51.9350  -1.9101  -1.4757  -1.2522  -0.8310   0.6623

          k =-0.5000 0.5000 0.0000 (  4780 PWs)   bands (ev):

   -51.9401 -51.9340  -1.7130  -1.6136  -1.2023  -1.1063   0.9430

          k =-0.2500-0.2500 0.2500 (  4719 PWs)   bands (ev):

   -51.9218 -51.9185  -2.5028  -1.0071  -0.7319  -0.6236   0.3618

          k =-0.2500 0.2500-0.2500 (  4719 PWs)   bands (ev):

   -51.9234 -51.9168  -2.5012  -0.9995  -0.7315  -0.6642   0.4709

          k = 0.2500-0.2500-0.2500 (  4719 PWs)   bands (ev):

   -51.9232 -51.9170  -2.5017  -1.0038  -0.7508  -0.6237   0.4072

          k =-0.2500 0.2500 0.5000 (  4738 PWs)   bands (ev):

   -51.9276 -51.9236  -2.1153  -1.5363  -0.5467  -0.4100  -0.0722

          k =-0.5000-0.2500 0.2500 (  4738 PWs)   bands (ev):

   -51.9261 -51.9251  -2.0775  -1.6144  -0.5140  -0.3151  -0.1263

          k = 0.5000-0.2500-0.2500 (  4738 PWs)   bands (ev):

   -51.9285 -51.9227  -2.0770  -1.6145  -0.5103  -0.3404  -0.1005

          k =-0.2500-0.5000 0.2500 (  4738 PWs)   bands (ev):

   -51.9290 -51.9222  -1.9334  -1.8308  -0.3631  -0.2856  -0.0599

          k =-0.2500 0.5000-0.2500 (  4738 PWs)   bands (ev):

   -51.9265 -51.9247  -1.9326  -1.8302  -0.3554  -0.3144  -0.0286

          k =-0.5000 0.2500 0.5000 (  4736 PWs)   bands (ev):

   -51.9275 -51.9238  -1.7120  -1.2852  -1.0347  -0.6572  -0.1651

          k =-0.5000 0.5000 0.2500 (  4736 PWs)   bands (ev):

   -51.9303 -51.9210  -1.5309  -1.4320  -1.0184  -0.9279   0.1587

     the Fermi energy is    -1.8579 ev

!    total energy              =     -29.76092436 Ry
     total all-electron energy =       -29.760947 Ry
     estimated scf accuracy    <          3.3E-10 Ry
     smearing contrib. (-TS)   =      -0.00152428 Ry
     internal energy E=F+TS    =     -29.75940008 Ry

     The total energy is F=E-TS. E is the sum of the following terms:
     one-electron contribution =     -28.20314597 Ry
     hartree contribution      =      10.35640459 Ry
     xc contribution           =      -6.70782329 Ry
     ewald contribution        =      -5.34897662 Ry
     one-center paw contrib.   =       0.14414121 Ry

     convergence has been achieved in   7 iterations

     Forces acting on atoms (cartesian axes, Ry/au):

     atom    1 type  1   force =    -0.00502256   -0.00124053    0.00560366
     atom    2 type  1   force =     0.00502256    0.00124053   -0.00560366

     Total force =     0.010786     Total SCF correction =     0.000003


     Computing stress (Cartesian axis) and pressure

          total   stress  (Ry/bohr**3)                   (kbar)     P=      -43.42
  -0.00029392  -0.00000148   0.00000633          -43.24       -0.22        0.93
  -0.00000148  -0.00030262   0.00000170           -0.22      -44.52        0.25
   0.00000633   0.00000170  -0.00028895            0.93        0.25      -42.51


     Writing all to output data dir ./tmp/Li_config_11.save/ :
     XML data file, charge density, pseudopotentials, collected wavefunctions

     init_run     :      0.70s CPU      0.74s WALL (       1 calls)
     electrons    :      8.42s CPU      8.78s WALL (       1 calls)
     forces       :      0.11s CPU      0.13s WALL (       1 calls)
     stress       :      0.62s CPU      0.65s WALL (       1 calls)

     Called by init_run:
     wfcinit      :      0.45s CPU      0.47s WALL (       1 calls)
     potinit      :      0.10s CPU      0.11s WALL (       1 calls)
     hinit0       :      0.08s CPU      0.08s WALL (       1 calls)

     Called by electrons:
     c_bands      :      5.97s CPU      6.21s WALL (       8 calls)
     sum_band     :      1.51s CPU      1.57s WALL (       8 calls)
     v_of_rho     :      0.53s CPU      0.56s WALL (       8 calls)
     newd         :      0.29s CPU      0.33s WALL (       8 calls)
     PAW_pot      :      0.17s CPU      0.17s WALL (       8 calls)
     mix_rho      :      0.04s CPU      0.05s WALL (       8 calls)

     Called by c_bands:
     init_us_2    :      0.18s CPU      0.20s WALL (     684 calls)
     cegterg      :      5.78s CPU      6.00s WALL (     288 calls)

     Called by *egterg:
     cdiaghg      :      0.03s CPU      0.03s WALL (     958 calls)
     h_psi        :      5.41s CPU      5.52s WALL (    1030 calls)
     s_psi        :      0.11s CPU      0.13s WALL (    1030 calls)
     g_psi        :      0.02s CPU      0.02s WALL (     706 calls)

     Called by h_psi:
     h_psi:calbec :      0.17s CPU      0.20s WALL (    1030 calls)
     vloc_psi     :      5.09s CPU      5.15s WALL (    1030 calls)
     add_vuspsi   :      0.13s CPU      0.14s WALL (    1030 calls)

     General routines
     calbec       :      0.26s CPU      0.30s WALL (    1498 calls)
     fft          :      0.27s CPU      0.27s WALL (     111 calls)
     ffts         :      0.01s CPU      0.01s WALL (      16 calls)
     fftw         :      4.94s CPU      4.98s WALL (   12700 calls)
     interpolate  :      0.03s CPU      0.03s WALL (       8 calls)

     Parallel routines

     PWSCF        :      9.88s CPU     10.37s WALL


   This run was terminated on:   9:11:23  28Jan2025            

=------------------------------------------------------------------------------=
   JOB DONE.
=------------------------------------------------------------------------------=
Note: The following floating-point exceptions are signalling: IEEE_INVALID_FLAG IEEE_DIVIDE_BY_ZERO IEEE_OVERFLOW_FLAG IEEE_UNDERFLOW_FLAG
