[Williams-MacBook-Air.local:93587] shmem: mmap: an error occurred while determining whether or not /var/folders/hy/k_vp1md94sz2dr40dtrs6ln80000gn/T//ompi.Williams-MacBook-Air.501/jf.0/2327248896/sm_segment.Williams-MacBook-Air.501.8ab70000.0 could be created.

     Program PWSCF v.7.3.1 starts on 28Jan2025 at  9:10:35 

     This program is part of the open-source Quantum ESPRESSO suite
     for quantum simulation of materials; please cite
         "P. Giannozzi et al., J. Phys.:Condens. Matter 21 395502 (2009);
         "P. Giannozzi et al., J. Phys.:Condens. Matter 29 465901 (2017);
         "P. Giannozzi et al., J. Chem. Phys. 152 154105 (2020);
          URL http://www.quantum-espresso.org", 
     in publications or presentations arising from this work. More details at
     http://www.quantum-espresso.org/quote

     Parallel version (MPI), running on     1 processors

     MPI processes distributed on     1 nodes
     0 MiB available memory on the printing compute node when the environment starts

     Reading input from Li_config_4.in

     Current dimensions of program PWSCF are:
     Max number of different atomic species (ntypx) = 10
     Max number of k-points (npk) =  40000
     Max angular momentum in pseudopotentials (lmaxx) =  4

     Subspace diagonalization in iterative solution of the eigenvalue problem:
     a serial algorithm will be used


     G-vector sticks info
     --------------------
     sticks:   dense  smooth     PW     G-vecs:    dense   smooth      PW
     Sum        2337     941    293                84823    21559    3695

     Using Slab Decomposition



     bravais-lattice index     =            1
     lattice parameter (alat)  =       9.8898  a.u.
     unit-cell volume          =     967.2910 (a.u.)^3
     number of atoms/cell      =            2
     number of atomic types    =            1
     number of electrons       =         6.00
     number of Kohn-Sham states=            7
     kinetic-energy cutoff     =      30.0000  Ry
     charge density cutoff     =     300.0000  Ry
     scf convergence threshold =      1.0E-08
     mixing beta               =       0.7000
     number of iterations used =            8  plain     mixing
     Exchange-correlation= SLA  PW   PBX  PBC
                           (   1   4   3   4   0   0   0)

     celldm(1)=   9.889759  celldm(2)=   0.000000  celldm(3)=   0.000000
     celldm(4)=   0.000000  celldm(5)=   0.000000  celldm(6)=   0.000000

     crystal axes: (cart. coord. in units of alat)
               a(1) = (   1.000000   0.000000   0.000000 )  
               a(2) = (   0.000000   1.000000   0.000000 )  
               a(3) = (   0.000000   0.000000   1.000000 )  

     reciprocal axes: (cart. coord. in units 2 pi/alat)
               b(1) = (  1.000000  0.000000  0.000000 )  
               b(2) = (  0.000000  1.000000  0.000000 )  
               b(3) = (  0.000000  0.000000  1.000000 )  


     PseudoPot. # 1 for Li read from file:
     ../../pseudopotentials/Li.pbe-s-kjpaw_psl.1.0.0.UPF
     MD5 check sum: d3662511b3860c829f7212fdb89d6128
     Pseudo is Projector augmented-wave, Zval =  3.0
     Generated using &quot;atomic&quot; code by A. Dal Corso  v.6.3
     Shape of augmentation charge: PSQ
     Using radial grid of 1017 points,  4 beta functions with: 
                l(1) =   0
                l(2) =   0
                l(3) =   1
                l(4) =   1
     Q(r) pseudized with 0 coefficients 


     atomic species   valence    mass     pseudopotential
     Li                3.00     6.94000     Li( 1.00)

     No symmetry found



   Cartesian axes

     site n.     atom                  positions (alat units)
         1        Li     tau(   1) = (   0.9592690   0.0388420   0.1282520  )
         2        Li     tau(   2) = (   0.5344520   0.3947480   0.4167210  )

     number of k points=    36  Gaussian smearing, width (Ry)=  0.0100
                       cart. coord. in units 2pi/alat
        k(    1) = (   0.0000000   0.0000000   0.0000000), wk =   0.0312500
        k(    2) = (   0.0000000   0.0000000   0.2500000), wk =   0.0625000
        k(    3) = (   0.0000000   0.0000000  -0.5000000), wk =   0.0312500
        k(    4) = (   0.0000000   0.2500000   0.2500000), wk =   0.0625000
        k(    5) = (   0.0000000   0.2500000  -0.5000000), wk =   0.0625000
        k(    6) = (   0.0000000  -0.5000000  -0.5000000), wk =   0.0312500
        k(    7) = (   0.2500000   0.2500000   0.2500000), wk =   0.0625000
        k(    8) = (   0.2500000   0.2500000  -0.5000000), wk =   0.0625000
        k(    9) = (   0.2500000  -0.5000000  -0.5000000), wk =   0.0625000
        k(   10) = (  -0.5000000  -0.5000000  -0.5000000), wk =   0.0312500
        k(   11) = (   0.2500000   0.0000000   0.0000000), wk =   0.0625000
        k(   12) = (   0.0000000   0.2500000   0.0000000), wk =   0.0625000
        k(   13) = (  -0.5000000   0.0000000   0.0000000), wk =   0.0312500
        k(   14) = (   0.0000000  -0.5000000   0.0000000), wk =   0.0312500
        k(   15) = (   0.0000000  -0.2500000   0.2500000), wk =   0.0625000
        k(   16) = (   0.2500000   0.0000000  -0.2500000), wk =   0.0625000
        k(   17) = (  -0.2500000   0.0000000  -0.2500000), wk =   0.0625000
        k(   18) = (   0.2500000  -0.2500000   0.0000000), wk =   0.0625000
        k(   19) = (  -0.2500000  -0.2500000   0.0000000), wk =   0.0625000
        k(   20) = (   0.2500000   0.0000000   0.5000000), wk =   0.0625000
        k(   21) = (  -0.5000000  -0.2500000   0.0000000), wk =   0.0625000
        k(   22) = (   0.0000000  -0.5000000   0.2500000), wk =   0.0625000
        k(   23) = (   0.2500000  -0.5000000   0.0000000), wk =   0.0625000
        k(   24) = (  -0.5000000   0.0000000   0.2500000), wk =   0.0625000
        k(   25) = (  -0.5000000   0.0000000   0.5000000), wk =   0.0312500
        k(   26) = (  -0.5000000   0.5000000   0.0000000), wk =   0.0312500
        k(   27) = (  -0.2500000  -0.2500000   0.2500000), wk =   0.0625000
        k(   28) = (  -0.2500000   0.2500000  -0.2500000), wk =   0.0625000
        k(   29) = (   0.2500000  -0.2500000  -0.2500000), wk =   0.0625000
        k(   30) = (  -0.2500000   0.2500000   0.5000000), wk =   0.0625000
        k(   31) = (  -0.5000000  -0.2500000   0.2500000), wk =   0.0625000
        k(   32) = (   0.5000000  -0.2500000  -0.2500000), wk =   0.0625000
        k(   33) = (  -0.2500000  -0.5000000   0.2500000), wk =   0.0625000
        k(   34) = (  -0.2500000   0.5000000  -0.2500000), wk =   0.0625000
        k(   35) = (  -0.5000000   0.2500000   0.5000000), wk =   0.0625000
        k(   36) = (  -0.5000000   0.5000000   0.2500000), wk =   0.0625000

     Dense  grid:    84823 G-vectors     FFT dimensions: (  60,  60,  60)

     Smooth grid:    21559 G-vectors     FFT dimensions: (  36,  36,  36)

     Estimated max dynamical RAM per process >     125.99 MB

     Initial potential from superposition of free atoms

     starting charge       5.9908, renormalised to       6.0000
     Starting wfcs are   10 randomized atomic wfcs
     Checking if some PAW data can be deallocated... 

     total cpu time spent up to now is        0.5 secs

     Self-consistent Calculation

     iteration #  1     ecut=    30.00 Ry     beta= 0.70
     Davidson diagonalization with overlap
     ethr =  1.00E-02,  avg # of iterations =  2.0

     Threshold (ethr) on eigenvalues was too large:
     Diagonalizing with lowered threshold

     Davidson diagonalization with overlap
     ethr =  3.08E-04,  avg # of iterations =  1.6

     total cpu time spent up to now is        1.5 secs

     total energy              =     -29.82703508 Ry
     estimated scf accuracy    <       0.01966294 Ry

     iteration #  2     ecut=    30.00 Ry     beta= 0.70
     Davidson diagonalization with overlap
     ethr =  3.28E-04,  avg # of iterations =  1.0

     total cpu time spent up to now is        2.0 secs

     total energy              =     -29.82785303 Ry
     estimated scf accuracy    <       0.00090177 Ry

     iteration #  3     ecut=    30.00 Ry     beta= 0.70
     Davidson diagonalization with overlap
     ethr =  1.50E-05,  avg # of iterations =  4.6

     total cpu time spent up to now is        2.7 secs

     total energy              =     -29.82796326 Ry
     estimated scf accuracy    <       0.00001476 Ry

     iteration #  4     ecut=    30.00 Ry     beta= 0.70
     Davidson diagonalization with overlap
     c_bands:  1 eigenvalues not converged
     c_bands:  1 eigenvalues not converged
     ethr =  2.46E-07,  avg # of iterations =  4.4

     total cpu time spent up to now is        3.4 secs

     total energy              =     -29.82796776 Ry
     estimated scf accuracy    <       0.00000086 Ry

     iteration #  5     ecut=    30.00 Ry     beta= 0.70
     Davidson diagonalization with overlap
     ethr =  1.43E-08,  avg # of iterations =  2.3

     total cpu time spent up to now is        3.9 secs

     End of self-consistent calculation

          k = 0.0000 0.0000 0.0000 (  2721 PWs)   bands (ev):

   -50.7183 -50.7160  -3.2490   0.8261   1.1016   1.4660   1.6953

          k = 0.0000 0.0000 0.2500 (  2685 PWs)   bands (ev):

   -50.7046 -50.6986  -2.9552  -0.4552   1.0696   1.3573   2.2041

          k = 0.0000 0.0000-0.5000 (  2730 PWs)   bands (ev):

   -50.7248 -50.7210  -2.3152  -1.6875   1.3920   1.7060   2.5374

          k = 0.0000 0.2500 0.2500 (  2684 PWs)   bands (ev):

   -50.7040 -50.6991  -2.6653  -0.3243  -0.0607   1.3441   2.0151

          k = 0.0000 0.2500-0.5000 (  2700 PWs)   bands (ev):

   -50.7143 -50.7029  -2.0380  -1.3856   0.2798   1.2096   1.7121

          k = 0.0000-0.5000-0.5000 (  2680 PWs)   bands (ev):

   -50.7025 -50.6965  -1.4018  -1.0028  -0.6118  -0.0073   2.0706

          k = 0.2500 0.2500 0.2500 (  2698 PWs)   bands (ev):

   -50.7117 -50.7033  -2.3705  -0.2184   0.0115   0.3562   2.1956

          k = 0.2500 0.2500-0.5000 (  2664 PWs)   bands (ev):

   -50.6937 -50.6876  -1.7596  -1.0740   0.2191   0.7927   1.3837

          k = 0.2500-0.5000-0.5000 (  2668 PWs)   bands (ev):

   -50.6952 -50.6894  -1.1509  -0.6964  -0.3665   0.2952   1.1133

          k =-0.5000-0.5000-0.5000 (  2608 PWs)   bands (ev):

   -50.6655 -50.6579  -0.5944  -0.3669   0.1240   0.6156   0.6343

          k = 0.2500 0.0000 0.0000 (  2685 PWs)   bands (ev):

   -50.7073 -50.6958  -2.9505  -0.5913   1.3076   1.7208   1.9011

          k = 0.0000 0.2500 0.0000 (  2685 PWs)   bands (ev):

   -50.7047 -50.6985  -2.9521  -0.5243   1.1121   1.6508   1.9145

          k =-0.5000 0.0000 0.0000 (  2730 PWs)   bands (ev):

   -50.7234 -50.7224  -2.1689  -1.9371   1.7072   2.0783   2.2201

          k = 0.0000-0.5000 0.0000 (  2730 PWs)   bands (ev):

   -50.7302 -50.7157  -2.2501  -1.8076   1.5225   1.9996   2.2289

          k = 0.0000-0.2500 0.2500 (  2684 PWs)   bands (ev):

   -50.7057 -50.6974  -2.6606  -0.3579  -0.0706   1.3492   2.2630

          k = 0.2500 0.0000-0.2500 (  2684 PWs)   bands (ev):

   -50.7027 -50.7004  -2.6627  -0.3871  -0.0622   1.5385   2.0193

          k =-0.2500 0.0000-0.2500 (  2684 PWs)   bands (ev):

   -50.7048 -50.6983  -2.6594  -0.4189  -0.0621   1.5765   2.1632

          k = 0.2500-0.2500 0.0000 (  2684 PWs)   bands (ev):

   -50.7050 -50.6980  -2.6590  -0.4215  -0.0762   1.6830   2.0513

          k =-0.2500-0.2500 0.0000 (  2684 PWs)   bands (ev):

   -50.7125 -50.6907  -2.6558  -0.4625  -0.0695   1.7944   2.1115

          k = 0.2500 0.0000 0.5000 (  2700 PWs)   bands (ev):

   -50.7140 -50.7033  -2.0381  -1.3801   0.2060   1.1598   1.9812

          k =-0.5000-0.2500 0.0000 (  2700 PWs)   bands (ev):

   -50.7155 -50.7017  -1.8894  -1.6479   0.5126   0.8745   2.3247

          k = 0.0000-0.5000 0.2500 (  2700 PWs)   bands (ev):

   -50.7155 -50.7017  -1.9741  -1.5190   0.4504   1.1125   1.7982

          k = 0.2500-0.5000 0.0000 (  2700 PWs)   bands (ev):

   -50.7130 -50.7043  -1.9712  -1.5083   0.3155   1.0105   2.3066

          k =-0.5000 0.0000 0.2500 (  2700 PWs)   bands (ev):

   -50.7094 -50.7078  -1.8926  -1.6533   0.5746   0.9291   2.1315

          k =-0.5000 0.0000 0.5000 (  2680 PWs)   bands (ev):

   -50.7030 -50.6960  -1.3386  -1.1193  -0.4956  -0.1718   2.4004

          k =-0.5000 0.5000 0.0000 (  2680 PWs)   bands (ev):

   -50.7043 -50.6947  -1.2931  -1.0945  -0.5539  -0.2885   2.6469

          k =-0.2500-0.2500 0.2500 (  2698 PWs)   bands (ev):

   -50.7129 -50.7021  -2.3684  -0.1984  -0.0213   0.3490   2.2817

          k =-0.2500 0.2500-0.2500 (  2698 PWs)   bands (ev):

   -50.7121 -50.7029  -2.3685  -0.1605  -0.0576   0.3468   2.3038

          k = 0.2500-0.2500-0.2500 (  2698 PWs)   bands (ev):

   -50.7098 -50.7052  -2.3788  -0.1581   0.0110   0.3687   1.9357

          k =-0.2500 0.2500 0.5000 (  2664 PWs)   bands (ev):

   -50.6975 -50.6838  -1.7669  -1.0794   0.3004   0.7925   1.3034

          k =-0.5000-0.2500 0.2500 (  2664 PWs)   bands (ev):

   -50.6943 -50.6870  -1.6116  -1.3608   0.5258   0.7863   1.4027

          k = 0.5000-0.2500-0.2500 (  2664 PWs)   bands (ev):

   -50.6955 -50.6858  -1.6224  -1.3717   0.7267   0.9183   1.1591

          k =-0.2500-0.5000 0.2500 (  2664 PWs)   bands (ev):

   -50.6929 -50.6884  -1.7024  -1.2242   0.4740   0.8370   1.2697

          k =-0.2500 0.5000-0.2500 (  2664 PWs)   bands (ev):

   -50.6920 -50.6893  -1.6951  -1.2172   0.3741   0.8113   1.3882

          k =-0.5000 0.2500 0.5000 (  2668 PWs)   bands (ev):

   -50.6957 -50.6889  -1.0838  -0.8416  -0.2301   0.1166   1.3245

          k =-0.5000 0.5000 0.2500 (  2668 PWs)   bands (ev):

   -50.6941 -50.6905  -1.0398  -0.8231  -0.2966  -0.0131   1.4886

     the Fermi energy is    -1.4886 ev

!    total energy              =     -29.82796820 Ry
     total all-electron energy =       -29.827991 Ry
     estimated scf accuracy    <          6.5E-09 Ry
     smearing contrib. (-TS)   =      -0.00107402 Ry
     internal energy E=F+TS    =     -29.82689418 Ry

     The total energy is F=E-TS. E is the sum of the following terms:
     one-electron contribution =     -26.69538491 Ry
     hartree contribution      =       9.84853551 Ry
     xc contribution           =      -6.78815298 Ry
     ewald contribution        =      -6.33624874 Ry
     one-center paw contrib.   =       0.14435694 Ry

     convergence has been achieved in   5 iterations

     Forces acting on atoms (cartesian axes, Ry/au):

     atom    1 type  1   force =     0.00176437   -0.00187346   -0.00112541
     atom    2 type  1   force =    -0.00176437    0.00187346    0.00112541

     Total force =     0.003972     Total SCF correction =     0.000039


     Computing stress (Cartesian axis) and pressure

          total   stress  (Ry/bohr**3)                   (kbar)     P=      -75.10
  -0.00051678  -0.00000889  -0.00000818          -76.02       -1.31       -1.20
  -0.00000889  -0.00051198   0.00001045           -1.31      -75.31        1.54
  -0.00000818   0.00001045  -0.00050273           -1.20        1.54      -73.95


     Writing all to output data dir ./tmp/Li_config_4.save/ :
     XML data file, charge density, pseudopotentials, collected wavefunctions

     init_run     :      0.41s CPU      0.44s WALL (       1 calls)
     electrons    :      3.35s CPU      3.48s WALL (       1 calls)
     forces       :      0.06s CPU      0.07s WALL (       1 calls)
     stress       :      0.34s CPU      0.36s WALL (       1 calls)

     Called by init_run:
     wfcinit      :      0.23s CPU      0.24s WALL (       1 calls)
     potinit      :      0.07s CPU      0.08s WALL (       1 calls)
     hinit0       :      0.07s CPU      0.07s WALL (       1 calls)

     Called by electrons:
     c_bands      :      2.33s CPU      2.41s WALL (       6 calls)
     sum_band     :      0.59s CPU      0.61s WALL (       6 calls)
     v_of_rho     :      0.23s CPU      0.24s WALL (       6 calls)
     newd         :      0.12s CPU      0.14s WALL (       6 calls)
     PAW_pot      :      0.13s CPU      0.13s WALL (       6 calls)
     mix_rho      :      0.02s CPU      0.02s WALL (       6 calls)

     Called by c_bands:
     init_us_2    :      0.08s CPU      0.09s WALL (     540 calls)
     cegterg      :      2.25s CPU      2.33s WALL (     216 calls)

     Called by *egterg:
     cdiaghg      :      0.02s CPU      0.02s WALL (     750 calls)
     h_psi        :      2.08s CPU      2.12s WALL (     822 calls)
     s_psi        :      0.05s CPU      0.06s WALL (     822 calls)
     g_psi        :      0.01s CPU      0.01s WALL (     570 calls)

     Called by h_psi:
     h_psi:calbec :      0.07s CPU      0.09s WALL (     822 calls)
     vloc_psi     :      1.95s CPU      1.96s WALL (     822 calls)
     add_vuspsi   :      0.06s CPU      0.07s WALL (     822 calls)

     General routines
     calbec       :      0.12s CPU      0.14s WALL (    1218 calls)
     fft          :      0.13s CPU      0.13s WALL (      85 calls)
     ffts         :      0.01s CPU      0.01s WALL (      12 calls)
     fftw         :      1.81s CPU      1.82s WALL (    9800 calls)
     interpolate  :      0.01s CPU      0.01s WALL (       6 calls)

     Parallel routines

     PWSCF        :      4.20s CPU      4.44s WALL


   This run was terminated on:   9:10:40  28Jan2025            

=------------------------------------------------------------------------------=
   JOB DONE.
=------------------------------------------------------------------------------=
Note: The following floating-point exceptions are signalling: IEEE_INVALID_FLAG IEEE_DIVIDE_BY_ZERO IEEE_OVERFLOW_FLAG IEEE_UNDERFLOW_FLAG
