[Williams-MacBook-Air.local:93756] shmem: mmap: an error occurred while determining whether or not /var/folders/hy/k_vp1md94sz2dr40dtrs6ln80000gn/T//ompi.Williams-MacBook-Air.501/jf.0/2135490560/sm_segment.Williams-MacBook-Air.501.7f490000.0 could be created.

     Program PWSCF v.7.3.1 starts on 28Jan2025 at  9:13:42 

     This program is part of the open-source Quantum ESPRESSO suite
     for quantum simulation of materials; please cite
         "P. Giannozzi et al., J. Phys.:Condens. Matter 21 395502 (2009);
         "P. Giannozzi et al., J. Phys.:Condens. Matter 29 465901 (2017);
         "P. Giannozzi et al., J. Chem. Phys. 152 154105 (2020);
          URL http://www.quantum-espresso.org", 
     in publications or presentations arising from this work. More details at
     http://www.quantum-espresso.org/quote

     Parallel version (MPI), running on     1 processors

     MPI processes distributed on     1 nodes
     0 MiB available memory on the printing compute node when the environment starts

     Reading input from Li_config_35.in

     Current dimensions of program PWSCF are:
     Max number of different atomic species (ntypx) = 10
     Max number of k-points (npk) =  40000
     Max angular momentum in pseudopotentials (lmaxx) =  4

     Subspace diagonalization in iterative solution of the eigenvalue problem:
     a serial algorithm will be used


     G-vector sticks info
     --------------------
     sticks:   dense  smooth     PW     G-vecs:    dense   smooth      PW
     Sum        2161     869    261                75037    19093    3191

     Using Slab Decomposition



     bravais-lattice index     =            1
     lattice parameter (alat)  =       9.5013  a.u.
     unit-cell volume          =     857.7140 (a.u.)^3
     number of atoms/cell      =            2
     number of atomic types    =            1
     number of electrons       =         6.00
     number of Kohn-Sham states=            7
     kinetic-energy cutoff     =      30.0000  Ry
     charge density cutoff     =     300.0000  Ry
     scf convergence threshold =      1.0E-08
     mixing beta               =       0.7000
     number of iterations used =            8  plain     mixing
     Exchange-correlation= SLA  PW   PBX  PBC
                           (   1   4   3   4   0   0   0)

     celldm(1)=   9.501252  celldm(2)=   0.000000  celldm(3)=   0.000000
     celldm(4)=   0.000000  celldm(5)=   0.000000  celldm(6)=   0.000000

     crystal axes: (cart. coord. in units of alat)
               a(1) = (   1.000000   0.000000   0.000000 )  
               a(2) = (   0.000000   1.000000   0.000000 )  
               a(3) = (   0.000000   0.000000   1.000000 )  

     reciprocal axes: (cart. coord. in units 2 pi/alat)
               b(1) = (  1.000000  0.000000  0.000000 )  
               b(2) = (  0.000000  1.000000  0.000000 )  
               b(3) = (  0.000000  0.000000  1.000000 )  


     PseudoPot. # 1 for Li read from file:
     ../../pseudopotentials/Li.pbe-s-kjpaw_psl.1.0.0.UPF
     MD5 check sum: d3662511b3860c829f7212fdb89d6128
     Pseudo is Projector augmented-wave, Zval =  3.0
     Generated using &quot;atomic&quot; code by A. Dal Corso  v.6.3
     Shape of augmentation charge: PSQ
     Using radial grid of 1017 points,  4 beta functions with: 
                l(1) =   0
                l(2) =   0
                l(3) =   1
                l(4) =   1
     Q(r) pseudized with 0 coefficients 


     atomic species   valence    mass     pseudopotential
     Li                3.00     6.94000     Li( 1.00)

     No symmetry found



   Cartesian axes

     site n.     atom                  positions (alat units)
         1        Li     tau(   1) = (   0.0546590   0.0947790   0.9900690  )
         2        Li     tau(   2) = (   0.5382540   0.5922990   0.5760230  )

     number of k points=    36  Gaussian smearing, width (Ry)=  0.0100
                       cart. coord. in units 2pi/alat
        k(    1) = (   0.0000000   0.0000000   0.0000000), wk =   0.0312500
        k(    2) = (   0.0000000   0.0000000   0.2500000), wk =   0.0625000
        k(    3) = (   0.0000000   0.0000000  -0.5000000), wk =   0.0312500
        k(    4) = (   0.0000000   0.2500000   0.2500000), wk =   0.0625000
        k(    5) = (   0.0000000   0.2500000  -0.5000000), wk =   0.0625000
        k(    6) = (   0.0000000  -0.5000000  -0.5000000), wk =   0.0312500
        k(    7) = (   0.2500000   0.2500000   0.2500000), wk =   0.0625000
        k(    8) = (   0.2500000   0.2500000  -0.5000000), wk =   0.0625000
        k(    9) = (   0.2500000  -0.5000000  -0.5000000), wk =   0.0625000
        k(   10) = (  -0.5000000  -0.5000000  -0.5000000), wk =   0.0312500
        k(   11) = (   0.2500000   0.0000000   0.0000000), wk =   0.0625000
        k(   12) = (   0.0000000   0.2500000   0.0000000), wk =   0.0625000
        k(   13) = (  -0.5000000   0.0000000   0.0000000), wk =   0.0312500
        k(   14) = (   0.0000000  -0.5000000   0.0000000), wk =   0.0312500
        k(   15) = (   0.0000000  -0.2500000   0.2500000), wk =   0.0625000
        k(   16) = (   0.2500000   0.0000000  -0.2500000), wk =   0.0625000
        k(   17) = (  -0.2500000   0.0000000  -0.2500000), wk =   0.0625000
        k(   18) = (   0.2500000  -0.2500000   0.0000000), wk =   0.0625000
        k(   19) = (  -0.2500000  -0.2500000   0.0000000), wk =   0.0625000
        k(   20) = (   0.2500000   0.0000000   0.5000000), wk =   0.0625000
        k(   21) = (  -0.5000000  -0.2500000   0.0000000), wk =   0.0625000
        k(   22) = (   0.0000000  -0.5000000   0.2500000), wk =   0.0625000
        k(   23) = (   0.2500000  -0.5000000   0.0000000), wk =   0.0625000
        k(   24) = (  -0.5000000   0.0000000   0.2500000), wk =   0.0625000
        k(   25) = (  -0.5000000   0.0000000   0.5000000), wk =   0.0312500
        k(   26) = (  -0.5000000   0.5000000   0.0000000), wk =   0.0312500
        k(   27) = (  -0.2500000  -0.2500000   0.2500000), wk =   0.0625000
        k(   28) = (  -0.2500000   0.2500000  -0.2500000), wk =   0.0625000
        k(   29) = (   0.2500000  -0.2500000  -0.2500000), wk =   0.0625000
        k(   30) = (  -0.2500000   0.2500000   0.5000000), wk =   0.0625000
        k(   31) = (  -0.5000000  -0.2500000   0.2500000), wk =   0.0625000
        k(   32) = (   0.5000000  -0.2500000  -0.2500000), wk =   0.0625000
        k(   33) = (  -0.2500000  -0.5000000   0.2500000), wk =   0.0625000
        k(   34) = (  -0.2500000   0.5000000  -0.2500000), wk =   0.0625000
        k(   35) = (  -0.5000000   0.2500000   0.5000000), wk =   0.0625000
        k(   36) = (  -0.5000000   0.5000000   0.2500000), wk =   0.0625000

     Dense  grid:    75037 G-vectors     FFT dimensions: (  54,  54,  54)

     Smooth grid:    19093 G-vectors     FFT dimensions: (  36,  36,  36)

     Estimated max dynamical RAM per process >     109.22 MB

     Initial potential from superposition of free atoms

     starting charge       5.9908, renormalised to       6.0000
     Starting wfcs are   10 randomized atomic wfcs
     Checking if some PAW data can be deallocated... 

     total cpu time spent up to now is        0.4 secs

     Self-consistent Calculation

     iteration #  1     ecut=    30.00 Ry     beta= 0.70
     Davidson diagonalization with overlap
     ethr =  1.00E-02,  avg # of iterations =  2.2

     Threshold (ethr) on eigenvalues was too large:
     Diagonalizing with lowered threshold

     Davidson diagonalization with overlap
     ethr =  2.50E-04,  avg # of iterations =  1.4

     total cpu time spent up to now is        1.4 secs

     total energy              =     -29.84150198 Ry
     estimated scf accuracy    <       0.01547385 Ry

     iteration #  2     ecut=    30.00 Ry     beta= 0.70
     Davidson diagonalization with overlap
     ethr =  2.58E-04,  avg # of iterations =  1.0

     total cpu time spent up to now is        1.9 secs

     total energy              =     -29.84210878 Ry
     estimated scf accuracy    <       0.00081894 Ry

     iteration #  3     ecut=    30.00 Ry     beta= 0.70
     Davidson diagonalization with overlap
     ethr =  1.36E-05,  avg # of iterations =  4.1

     total cpu time spent up to now is        2.5 secs

     total energy              =     -29.84220152 Ry
     estimated scf accuracy    <       0.00000767 Ry

     iteration #  4     ecut=    30.00 Ry     beta= 0.70
     Davidson diagonalization with overlap
     ethr =  1.28E-07,  avg # of iterations =  4.1

     total cpu time spent up to now is        3.1 secs

     total energy              =     -29.84220350 Ry
     estimated scf accuracy    <       0.00000007 Ry

     iteration #  5     ecut=    30.00 Ry     beta= 0.70
     Davidson diagonalization with overlap
     ethr =  1.24E-09,  avg # of iterations =  3.0

     total cpu time spent up to now is        3.7 secs

     End of self-consistent calculation

          k = 0.0000 0.0000 0.0000 (  2373 PWs)   bands (ev):

   -50.5834 -50.5689  -3.2484   1.3094   1.3127   1.4128   2.7074

          k = 0.0000 0.0000 0.2500 (  2409 PWs)   bands (ev):

   -50.6014 -50.5914  -2.9218  -0.3024   1.6334   1.6368   3.0864

          k = 0.0000 0.0000-0.5000 (  2392 PWs)   bands (ev):

   -50.5959 -50.5810  -2.0530  -1.8032   2.3138   2.3154   3.0399

          k = 0.0000 0.2500 0.2500 (  2352 PWs)   bands (ev):

   -50.5732 -50.5586  -2.5922  -0.1793   0.2359   1.9673   2.5709

          k = 0.0000 0.2500-0.5000 (  2366 PWs)   bands (ev):

   -50.5774 -50.5702  -1.7377  -1.4754   0.8357   1.2503   2.6108

          k = 0.0000-0.5000-0.5000 (  2408 PWs)   bands (ev):

   -50.5971 -50.5966  -0.9181  -0.9139  -0.2645  -0.2585   3.2638

          k = 0.2500 0.2500 0.2500 (  2383 PWs)   bands (ev):

   -50.5917 -50.5746  -2.2661   0.1476   0.1850   0.7427   2.7510

          k = 0.2500 0.2500-0.5000 (  2386 PWs)   bands (ev):

   -50.5898 -50.5819  -1.4229  -1.1425   0.9229   1.3894   1.5456

          k = 0.2500-0.5000-0.5000 (  2392 PWs)   bands (ev):

   -50.5907 -50.5897  -0.5740  -0.5685   0.0167   0.0244   2.0942

          k =-0.5000-0.5000-0.5000 (  2320 PWs)   bands (ev):

   -50.5520 -50.5515   0.2357   0.2389   0.5590   0.5659   0.8992

          k = 0.2500 0.0000 0.0000 (  2409 PWs)   bands (ev):

   -50.6010 -50.5918  -2.9209  -0.3282   1.6497   1.7395   2.8978

          k = 0.0000 0.2500 0.0000 (  2409 PWs)   bands (ev):

   -50.5986 -50.5942  -2.9209  -0.3292   1.6529   1.7409   2.8967

          k =-0.5000 0.0000 0.0000 (  2392 PWs)   bands (ev):

   -50.5924 -50.5844  -1.9610  -1.9134   2.5660   2.5752   2.6816

          k = 0.0000-0.5000 0.0000 (  2392 PWs)   bands (ev):

   -50.5889 -50.5879  -1.9412  -1.9340   2.6063   2.6228   2.6570

          k = 0.0000-0.2500 0.2500 (  2352 PWs)   bands (ev):

   -50.5721 -50.5597  -2.5922  -0.1789   0.2361   1.9675   2.5659

          k = 0.2500 0.0000-0.2500 (  2352 PWs)   bands (ev):

   -50.5689 -50.5629  -2.5923  -0.1770   0.2366   1.9648   2.5513

          k =-0.2500 0.0000-0.2500 (  2352 PWs)   bands (ev):

   -50.5761 -50.5558  -2.5922  -0.1797   0.2353   1.9634   2.5840

          k = 0.2500-0.2500 0.0000 (  2352 PWs)   bands (ev):

   -50.5703 -50.5615  -2.5913  -0.1980   0.2387   2.0485   2.6097

          k =-0.2500-0.2500 0.0000 (  2352 PWs)   bands (ev):

   -50.5709 -50.5609  -2.5913  -0.1979   0.2387   2.0485   2.6084

          k = 0.2500 0.0000 0.5000 (  2366 PWs)   bands (ev):

   -50.5773 -50.5702  -1.7378  -1.4754   0.8365   1.2508   2.6080

          k =-0.5000-0.2500 0.0000 (  2366 PWs)   bands (ev):

   -50.5762 -50.5713  -1.6419  -1.5918   0.9985   1.0785   2.8560

          k = 0.0000-0.5000 0.2500 (  2366 PWs)   bands (ev):

   -50.5744 -50.5731  -1.6221  -1.6145   1.0479   1.0598   2.8974

          k = 0.2500-0.5000 0.0000 (  2366 PWs)   bands (ev):

   -50.5741 -50.5734  -1.6211  -1.6135   1.0329   1.0449   2.9076

          k =-0.5000 0.0000 0.2500 (  2366 PWs)   bands (ev):

   -50.5789 -50.5686  -1.6430  -1.5928   1.0147   1.0935   2.8335

          k =-0.5000 0.0000 0.5000 (  2408 PWs)   bands (ev):

   -50.5984 -50.5952  -0.9298  -0.9026  -0.2807  -0.2408   3.2293

          k =-0.5000 0.5000 0.0000 (  2408 PWs)   bands (ev):

   -50.5971 -50.5966  -0.8989  -0.8981  -0.2940  -0.2928   3.3076

          k =-0.2500-0.2500 0.2500 (  2383 PWs)   bands (ev):

   -50.5853 -50.5810  -2.2665   0.1476   0.1884   0.7447   2.7241

          k =-0.2500 0.2500-0.2500 (  2383 PWs)   bands (ev):

   -50.5909 -50.5754  -2.2661   0.1475   0.1855   0.7429   2.7473

          k = 0.2500-0.2500-0.2500 (  2383 PWs)   bands (ev):

   -50.5860 -50.5803  -2.2664   0.1474   0.1880   0.7444   2.7285

          k =-0.2500 0.2500 0.5000 (  2386 PWs)   bands (ev):

   -50.5896 -50.5821  -1.4229  -1.1425   0.9223   1.3881   1.5462

          k =-0.5000-0.2500 0.2500 (  2386 PWs)   bands (ev):

   -50.5886 -50.5831  -1.3227  -1.2693   1.1473   1.2523   1.5243

          k = 0.5000-0.2500-0.2500 (  2386 PWs)   bands (ev):

   -50.5890 -50.5827  -1.3225  -1.2691   1.1434   1.2470   1.5283

          k =-0.2500-0.5000 0.2500 (  2386 PWs)   bands (ev):

   -50.5861 -50.5856  -1.3009  -1.2929   1.2050   1.2218   1.5048

          k =-0.2500 0.5000-0.2500 (  2386 PWs)   bands (ev):

   -50.5864 -50.5853  -1.2999  -1.2918   1.1765   1.1918   1.5368

          k =-0.5000 0.2500 0.5000 (  2392 PWs)   bands (ev):

   -50.5935 -50.5868  -0.5895  -0.5530  -0.0039   0.0465   2.0628

          k =-0.5000 0.5000 0.2500 (  2392 PWs)   bands (ev):

   -50.5905 -50.5898  -0.5506  -0.5494  -0.0214  -0.0198   2.2309

     the Fermi energy is    -1.3550 ev

!    total energy              =     -29.84220360 Ry
     total all-electron energy =       -29.842226 Ry
     estimated scf accuracy    <          1.5E-09 Ry
     smearing contrib. (-TS)   =      -0.00166035 Ry
     internal energy E=F+TS    =     -29.84054325 Ry

     The total energy is F=E-TS. E is the sum of the following terms:
     one-electron contribution =     -25.72781964 Ry
     hartree contribution      =       9.38890504 Ry
     xc contribution           =      -6.78092147 Ry
     ewald contribution        =      -6.86464328 Ry
     one-center paw contrib.   =       0.14393609 Ry

     convergence has been achieved in   5 iterations

     Forces acting on atoms (cartesian axes, Ry/au):

     atom    1 type  1   force =     0.00011085    0.00001165   -0.00034564
     atom    2 type  1   force =    -0.00011085   -0.00001165    0.00034564

     Total force =     0.000514     Total SCF correction =     0.000028


     Computing stress (Cartesian axis) and pressure

          total   stress  (Ry/bohr**3)                   (kbar)     P=      -89.34
  -0.00061051   0.00000003  -0.00000064          -89.81        0.00       -0.09
   0.00000003  -0.00061102  -0.00000010            0.00      -89.88       -0.01
  -0.00000064  -0.00000010  -0.00060041           -0.09       -0.01      -88.32


     Writing all to output data dir ./tmp/Li_config_35.save/ :
     XML data file, charge density, pseudopotentials, collected wavefunctions

     init_run     :      0.38s CPU      0.40s WALL (       1 calls)
     electrons    :      3.12s CPU      3.27s WALL (       1 calls)
     forces       :      0.06s CPU      0.07s WALL (       1 calls)
     stress       :      0.30s CPU      0.32s WALL (       1 calls)

     Called by init_run:
     wfcinit      :      0.22s CPU      0.22s WALL (       1 calls)
     potinit      :      0.06s CPU      0.06s WALL (       1 calls)
     hinit0       :      0.07s CPU      0.07s WALL (       1 calls)

     Called by electrons:
     c_bands      :      2.23s CPU      2.33s WALL (       6 calls)
     sum_band     :      0.54s CPU      0.56s WALL (       6 calls)
     v_of_rho     :      0.16s CPU      0.17s WALL (       6 calls)
     newd         :      0.10s CPU      0.12s WALL (       6 calls)
     PAW_pot      :      0.13s CPU      0.13s WALL (       6 calls)
     mix_rho      :      0.01s CPU      0.01s WALL (       6 calls)

     Called by c_bands:
     init_us_2    :      0.07s CPU      0.08s WALL (     540 calls)
     cegterg      :      2.16s CPU      2.25s WALL (     216 calls)

     Called by *egterg:
     cdiaghg      :      0.02s CPU      0.02s WALL (     751 calls)
     h_psi        :      2.01s CPU      2.06s WALL (     823 calls)
     s_psi        :      0.05s CPU      0.06s WALL (     823 calls)
     g_psi        :      0.01s CPU      0.01s WALL (     571 calls)

     Called by h_psi:
     h_psi:calbec :      0.07s CPU      0.08s WALL (     823 calls)
     vloc_psi     :      1.89s CPU      1.90s WALL (     823 calls)
     add_vuspsi   :      0.05s CPU      0.06s WALL (     823 calls)

     General routines
     calbec       :      0.11s CPU      0.13s WALL (    1219 calls)
     fft          :      0.08s CPU      0.08s WALL (      85 calls)
     ffts         :      0.01s CPU      0.01s WALL (      12 calls)
     fftw         :      1.83s CPU      1.84s WALL (    9978 calls)
     interpolate  :      0.01s CPU      0.01s WALL (       6 calls)

     Parallel routines

     PWSCF        :      3.89s CPU      4.09s WALL


   This run was terminated on:   9:13:46  28Jan2025            

=------------------------------------------------------------------------------=
   JOB DONE.
=------------------------------------------------------------------------------=
Note: The following floating-point exceptions are signalling: IEEE_INVALID_FLAG IEEE_DIVIDE_BY_ZERO IEEE_OVERFLOW_FLAG IEEE_UNDERFLOW_FLAG
