[Williams-MacBook-Air.local:93591] shmem: mmap: an error occurred while determining whether or not /var/folders/hy/k_vp1md94sz2dr40dtrs6ln80000gn/T//ompi.Williams-MacBook-Air.501/jf.0/1526530048/sm_segment.Williams-MacBook-Air.501.5afd0000.0 could be created.

     Program PWSCF v.7.3.1 starts on 28Jan2025 at  9:10:54 

     This program is part of the open-source Quantum ESPRESSO suite
     for quantum simulation of materials; please cite
         "P. Giannozzi et al., J. Phys.:Condens. Matter 21 395502 (2009);
         "P. Giannozzi et al., J. Phys.:Condens. Matter 29 465901 (2017);
         "P. Giannozzi et al., J. Chem. Phys. 152 154105 (2020);
          URL http://www.quantum-espresso.org", 
     in publications or presentations arising from this work. More details at
     http://www.quantum-espresso.org/quote

     Parallel version (MPI), running on     1 processors

     MPI processes distributed on     1 nodes
     0 MiB available memory on the printing compute node when the environment starts

     Reading input from Li_config_7.in

     Current dimensions of program PWSCF are:
     Max number of different atomic species (ntypx) = 10
     Max number of k-points (npk) =  40000
     Max angular momentum in pseudopotentials (lmaxx) =  4

     Subspace diagonalization in iterative solution of the eigenvalue problem:
     a serial algorithm will be used


     G-vector sticks info
     --------------------
     sticks:   dense  smooth     PW     G-vecs:    dense   smooth      PW
     Sum        2225     885    277                78805    19933    3287

     Using Slab Decomposition



     bravais-lattice index     =            1
     lattice parameter (alat)  =       9.6396  a.u.
     unit-cell volume          =     895.7429 (a.u.)^3
     number of atoms/cell      =            2
     number of atomic types    =            1
     number of electrons       =         6.00
     number of Kohn-Sham states=            7
     kinetic-energy cutoff     =      30.0000  Ry
     charge density cutoff     =     300.0000  Ry
     scf convergence threshold =      1.0E-08
     mixing beta               =       0.7000
     number of iterations used =            8  plain     mixing
     Exchange-correlation= SLA  PW   PBX  PBC
                           (   1   4   3   4   0   0   0)

     celldm(1)=   9.639647  celldm(2)=   0.000000  celldm(3)=   0.000000
     celldm(4)=   0.000000  celldm(5)=   0.000000  celldm(6)=   0.000000

     crystal axes: (cart. coord. in units of alat)
               a(1) = (   1.000000   0.000000   0.000000 )  
               a(2) = (   0.000000   1.000000   0.000000 )  
               a(3) = (   0.000000   0.000000   1.000000 )  

     reciprocal axes: (cart. coord. in units 2 pi/alat)
               b(1) = (  1.000000  0.000000  0.000000 )  
               b(2) = (  0.000000  1.000000  0.000000 )  
               b(3) = (  0.000000  0.000000  1.000000 )  


     PseudoPot. # 1 for Li read from file:
     ../../pseudopotentials/Li.pbe-s-kjpaw_psl.1.0.0.UPF
     MD5 check sum: d3662511b3860c829f7212fdb89d6128
     Pseudo is Projector augmented-wave, Zval =  3.0
     Generated using &quot;atomic&quot; code by A. Dal Corso  v.6.3
     Shape of augmentation charge: PSQ
     Using radial grid of 1017 points,  4 beta functions with: 
                l(1) =   0
                l(2) =   0
                l(3) =   1
                l(4) =   1
     Q(r) pseudized with 0 coefficients 


     atomic species   valence    mass     pseudopotential
     Li                3.00     6.94000     Li( 1.00)

     No symmetry found



   Cartesian axes

     site n.     atom                  positions (alat units)
         1        Li     tau(   1) = (   0.8972310   0.9524580   0.9003710  )
         2        Li     tau(   2) = (   0.5764120   0.4601580   0.4170920  )

     number of k points=    36  Gaussian smearing, width (Ry)=  0.0100
                       cart. coord. in units 2pi/alat
        k(    1) = (   0.0000000   0.0000000   0.0000000), wk =   0.0312500
        k(    2) = (   0.0000000   0.0000000   0.2500000), wk =   0.0625000
        k(    3) = (   0.0000000   0.0000000  -0.5000000), wk =   0.0312500
        k(    4) = (   0.0000000   0.2500000   0.2500000), wk =   0.0625000
        k(    5) = (   0.0000000   0.2500000  -0.5000000), wk =   0.0625000
        k(    6) = (   0.0000000  -0.5000000  -0.5000000), wk =   0.0312500
        k(    7) = (   0.2500000   0.2500000   0.2500000), wk =   0.0625000
        k(    8) = (   0.2500000   0.2500000  -0.5000000), wk =   0.0625000
        k(    9) = (   0.2500000  -0.5000000  -0.5000000), wk =   0.0625000
        k(   10) = (  -0.5000000  -0.5000000  -0.5000000), wk =   0.0312500
        k(   11) = (   0.2500000   0.0000000   0.0000000), wk =   0.0625000
        k(   12) = (   0.0000000   0.2500000   0.0000000), wk =   0.0625000
        k(   13) = (  -0.5000000   0.0000000   0.0000000), wk =   0.0312500
        k(   14) = (   0.0000000  -0.5000000   0.0000000), wk =   0.0312500
        k(   15) = (   0.0000000  -0.2500000   0.2500000), wk =   0.0625000
        k(   16) = (   0.2500000   0.0000000  -0.2500000), wk =   0.0625000
        k(   17) = (  -0.2500000   0.0000000  -0.2500000), wk =   0.0625000
        k(   18) = (   0.2500000  -0.2500000   0.0000000), wk =   0.0625000
        k(   19) = (  -0.2500000  -0.2500000   0.0000000), wk =   0.0625000
        k(   20) = (   0.2500000   0.0000000   0.5000000), wk =   0.0625000
        k(   21) = (  -0.5000000  -0.2500000   0.0000000), wk =   0.0625000
        k(   22) = (   0.0000000  -0.5000000   0.2500000), wk =   0.0625000
        k(   23) = (   0.2500000  -0.5000000   0.0000000), wk =   0.0625000
        k(   24) = (  -0.5000000   0.0000000   0.2500000), wk =   0.0625000
        k(   25) = (  -0.5000000   0.0000000   0.5000000), wk =   0.0312500
        k(   26) = (  -0.5000000   0.5000000   0.0000000), wk =   0.0312500
        k(   27) = (  -0.2500000  -0.2500000   0.2500000), wk =   0.0625000
        k(   28) = (  -0.2500000   0.2500000  -0.2500000), wk =   0.0625000
        k(   29) = (   0.2500000  -0.2500000  -0.2500000), wk =   0.0625000
        k(   30) = (  -0.2500000   0.2500000   0.5000000), wk =   0.0625000
        k(   31) = (  -0.5000000  -0.2500000   0.2500000), wk =   0.0625000
        k(   32) = (   0.5000000  -0.2500000  -0.2500000), wk =   0.0625000
        k(   33) = (  -0.2500000  -0.5000000   0.2500000), wk =   0.0625000
        k(   34) = (  -0.2500000   0.5000000  -0.2500000), wk =   0.0625000
        k(   35) = (  -0.5000000   0.2500000   0.5000000), wk =   0.0625000
        k(   36) = (  -0.5000000   0.5000000   0.2500000), wk =   0.0625000

     Dense  grid:    78805 G-vectors     FFT dimensions: (  54,  54,  54)

     Smooth grid:    19933 G-vectors     FFT dimensions: (  36,  36,  36)

     Estimated max dynamical RAM per process >     114.08 MB

     Initial potential from superposition of free atoms

     starting charge       5.9908, renormalised to       6.0000
     Starting wfcs are   10 randomized atomic wfcs
     Checking if some PAW data can be deallocated... 

     total cpu time spent up to now is        0.4 secs

     Self-consistent Calculation

     iteration #  1     ecut=    30.00 Ry     beta= 0.70
     Davidson diagonalization with overlap
     ethr =  1.00E-02,  avg # of iterations =  2.0

     Threshold (ethr) on eigenvalues was too large:
     Diagonalizing with lowered threshold

     Davidson diagonalization with overlap
     ethr =  2.60E-04,  avg # of iterations =  1.6

     total cpu time spent up to now is        1.4 secs

     total energy              =     -29.83635751 Ry
     estimated scf accuracy    <       0.01626723 Ry

     iteration #  2     ecut=    30.00 Ry     beta= 0.70
     Davidson diagonalization with overlap
     ethr =  2.71E-04,  avg # of iterations =  1.0

     total cpu time spent up to now is        1.9 secs

     total energy              =     -29.83697871 Ry
     estimated scf accuracy    <       0.00086629 Ry

     iteration #  3     ecut=    30.00 Ry     beta= 0.70
     Davidson diagonalization with overlap
     ethr =  1.44E-05,  avg # of iterations =  3.4

     total cpu time spent up to now is        2.5 secs

     total energy              =     -29.83707826 Ry
     estimated scf accuracy    <       0.00000861 Ry

     iteration #  4     ecut=    30.00 Ry     beta= 0.70
     Davidson diagonalization with overlap
     ethr =  1.44E-07,  avg # of iterations =  4.7

     total cpu time spent up to now is        3.2 secs

     total energy              =     -29.83708125 Ry
     estimated scf accuracy    <       0.00000011 Ry

     iteration #  5     ecut=    30.00 Ry     beta= 0.70
     Davidson diagonalization with overlap
     ethr =  1.86E-09,  avg # of iterations =  2.6

     total cpu time spent up to now is        3.7 secs

     End of self-consistent calculation

          k = 0.0000 0.0000 0.0000 (  2517 PWs)   bands (ev):

   -50.6682 -50.6348  -3.2539   1.1194   1.1232   1.5494   2.1013

          k = 0.0000 0.0000 0.2500 (  2501 PWs)   bands (ev):

   -50.6504 -50.6324  -2.9349  -0.4338   1.4538   1.8286   2.3129

          k = 0.0000 0.0000-0.5000 (  2496 PWs)   bands (ev):

   -50.6408 -50.6354  -2.0090  -1.9604   2.3537   2.3891   2.4432

          k = 0.0000 0.2500 0.2500 (  2468 PWs)   bands (ev):

   -50.6284 -50.6189  -2.6168  -0.3142   0.1200   2.0395   2.4852

          k = 0.0000 0.2500-0.5000 (  2494 PWs)   bands (ev):

   -50.6400 -50.6353  -1.7030  -1.6514   0.8450   0.9284   2.7006

          k = 0.0000-0.5000-0.5000 (  2496 PWs)   bands (ev):

   -50.6400 -50.6394  -0.9934  -0.9904  -0.3878  -0.3836   3.1426

          k = 0.2500 0.2500 0.2500 (  2470 PWs)   bands (ev):

   -50.6319 -50.6191  -2.3076  -0.0118   0.1474   0.5907   2.4835

          k = 0.2500 0.2500-0.5000 (  2480 PWs)   bands (ev):

   -50.6338 -50.6287  -1.4020  -1.3481   0.9800   1.0567   1.4497

          k = 0.2500-0.5000-0.5000 (  2484 PWs)   bands (ev):

   -50.6349 -50.6333  -0.6876  -0.6839  -0.1163  -0.1114   2.0768

          k =-0.5000-0.5000-0.5000 (  2440 PWs)   bands (ev):

   -50.6135 -50.6115  -0.1364  -0.1318   0.4900   0.5005   1.0017

          k = 0.2500 0.0000 0.0000 (  2501 PWs)   bands (ev):

   -50.6476 -50.6351  -2.9385  -0.3300   1.3924   1.3962   2.8493

          k = 0.0000 0.2500 0.0000 (  2501 PWs)   bands (ev):

   -50.6492 -50.6335  -2.9348  -0.4348   1.4569   1.8296   2.3125

          k =-0.5000 0.0000 0.0000 (  2496 PWs)   bands (ev):

   -50.6512 -50.6252  -2.2055  -1.6880   1.8371   1.8414   3.0616

          k = 0.0000-0.5000 0.0000 (  2496 PWs)   bands (ev):

   -50.6395 -50.6368  -1.9962  -1.9739   2.3713   2.4187   2.4291

          k = 0.0000-0.2500 0.2500 (  2468 PWs)   bands (ev):

   -50.6275 -50.6198  -2.6166  -0.3147   0.1197   2.0408   2.5160

          k = 0.2500 0.0000-0.2500 (  2468 PWs)   bands (ev):

   -50.6316 -50.6156  -2.6215  -0.2456   0.1171   1.7187   2.3758

          k =-0.2500 0.0000-0.2500 (  2468 PWs)   bands (ev):

   -50.6309 -50.6164  -2.6219  -0.2418   0.1193   1.7208   2.3360

          k = 0.2500-0.2500 0.0000 (  2468 PWs)   bands (ev):

   -50.6301 -50.6172  -2.6215  -0.2455   0.1177   1.7225   2.3646

          k =-0.2500-0.2500 0.0000 (  2468 PWs)   bands (ev):

   -50.6300 -50.6173  -2.6217  -0.2438   0.1187   1.7235   2.3461

          k = 0.2500 0.0000 0.5000 (  2494 PWs)   bands (ev):

   -50.6413 -50.6340  -1.7078  -1.6570   0.9173   0.9974   2.5883

          k =-0.5000-0.2500 0.0000 (  2494 PWs)   bands (ev):

   -50.6382 -50.6372  -1.9063  -1.3620   0.4990   1.3178   2.1521

          k = 0.0000-0.5000 0.2500 (  2494 PWs)   bands (ev):

   -50.6391 -50.6362  -1.6895  -1.6658   0.8679   0.9063   2.7185

          k = 0.2500-0.5000 0.0000 (  2494 PWs)   bands (ev):

   -50.6393 -50.6360  -1.6945  -1.6711   0.9385   0.9754   2.6274

          k =-0.5000 0.0000 0.2500 (  2494 PWs)   bands (ev):

   -50.6390 -50.6363  -1.9064  -1.3620   0.5002   1.3185   2.1480

          k =-0.5000 0.0000 0.5000 (  2496 PWs)   bands (ev):

   -50.6422 -50.6373  -1.0802  -1.0372  -0.2873  -0.2201   2.9069

          k =-0.5000 0.5000 0.0000 (  2496 PWs)   bands (ev):

   -50.6407 -50.6388  -1.0689  -1.0492  -0.2695  -0.2386   2.9468

          k =-0.2500-0.2500 0.2500 (  2470 PWs)   bands (ev):

   -50.6302 -50.6207  -2.3067  -0.0125   0.1428   0.5876   2.5164

          k =-0.2500 0.2500-0.2500 (  2470 PWs)   bands (ev):

   -50.6313 -50.6196  -2.3071  -0.0126   0.1455   0.5890   2.4998

          k = 0.2500-0.2500-0.2500 (  2470 PWs)   bands (ev):

   -50.6301 -50.6209  -2.3065  -0.0119   0.1404   0.5866   2.5287

          k =-0.2500 0.2500 0.5000 (  2480 PWs)   bands (ev):

   -50.6357 -50.6268  -1.4012  -1.3475   0.9649   1.0406   1.4674

          k =-0.5000-0.2500 0.2500 (  2480 PWs)   bands (ev):

   -50.6320 -50.6305  -1.6080  -1.0300   0.5246   1.1300   1.4681

          k = 0.5000-0.2500-0.2500 (  2480 PWs)   bands (ev):

   -50.6320 -50.6305  -1.6082  -1.0301   0.5258   1.1304   1.4670

          k =-0.2500-0.5000 0.2500 (  2480 PWs)   bands (ev):

   -50.6339 -50.6286  -1.3868  -1.3621   0.9784   1.0134   1.4779

          k =-0.2500 0.5000-0.2500 (  2480 PWs)   bands (ev):

   -50.6324 -50.6301  -1.3883  -1.3634   1.0120   1.0478   1.4392

          k =-0.5000 0.2500 0.5000 (  2484 PWs)   bands (ev):

   -50.6357 -50.6326  -0.7803  -0.7296   0.0041   0.0812   1.7442

          k =-0.5000 0.5000 0.2500 (  2484 PWs)   bands (ev):

   -50.6355 -50.6327  -0.7672  -0.7439   0.0246   0.0601   1.7680

     the Fermi energy is    -1.4085 ev

!    total energy              =     -29.83708140 Ry
     total all-electron energy =       -29.837104 Ry
     estimated scf accuracy    <          3.0E-09 Ry
     smearing contrib. (-TS)   =      -0.00168703 Ry
     internal energy E=F+TS    =     -29.83539437 Ry

     The total energy is F=E-TS. E is the sum of the following terms:
     one-electron contribution =     -26.06296712 Ry
     hartree contribution      =       9.54575326 Ry
     xc contribution           =      -6.78231503 Ry
     ewald contribution        =      -6.67991090 Ry
     one-center paw contrib.   =       0.14404542 Ry

     convergence has been achieved in   5 iterations

     Forces acting on atoms (cartesian axes, Ry/au):

     atom    1 type  1   force =    -0.00064818    0.00002035    0.00006539
     atom    2 type  1   force =     0.00064818   -0.00002035   -0.00006539

     Total force =     0.000922     Total SCF correction =     0.000024


     Computing stress (Cartesian axis) and pressure

          total   stress  (Ry/bohr**3)                   (kbar)     P=      -84.19
  -0.00055822   0.00000051   0.00000109          -82.12        0.07        0.16
   0.00000051  -0.00057956   0.00000009            0.07      -85.26        0.01
   0.00000109   0.00000009  -0.00057925            0.16        0.01      -85.21


     Writing all to output data dir ./tmp/Li_config_7.save/ :
     XML data file, charge density, pseudopotentials, collected wavefunctions

     init_run     :      0.38s CPU      0.40s WALL (       1 calls)
     electrons    :      3.14s CPU      3.29s WALL (       1 calls)
     forces       :      0.06s CPU      0.06s WALL (       1 calls)
     stress       :      0.32s CPU      0.33s WALL (       1 calls)

     Called by init_run:
     wfcinit      :      0.22s CPU      0.23s WALL (       1 calls)
     potinit      :      0.06s CPU      0.06s WALL (       1 calls)
     hinit0       :      0.07s CPU      0.07s WALL (       1 calls)

     Called by electrons:
     c_bands      :      2.24s CPU      2.35s WALL (       6 calls)
     sum_band     :      0.54s CPU      0.57s WALL (       6 calls)
     v_of_rho     :      0.16s CPU      0.17s WALL (       6 calls)
     newd         :      0.11s CPU      0.12s WALL (       6 calls)
     PAW_pot      :      0.13s CPU      0.13s WALL (       6 calls)
     mix_rho      :      0.01s CPU      0.01s WALL (       6 calls)

     Called by c_bands:
     init_us_2    :      0.08s CPU      0.08s WALL (     540 calls)
     cegterg      :      2.16s CPU      2.27s WALL (     216 calls)

     Called by *egterg:
     cdiaghg      :      0.02s CPU      0.02s WALL (     731 calls)
     h_psi        :      2.01s CPU      2.06s WALL (     803 calls)
     s_psi        :      0.05s CPU      0.06s WALL (     803 calls)
     g_psi        :      0.01s CPU      0.01s WALL (     551 calls)

     Called by h_psi:
     h_psi:calbec :      0.07s CPU      0.08s WALL (     803 calls)
     vloc_psi     :      1.89s CPU      1.90s WALL (     803 calls)
     add_vuspsi   :      0.05s CPU      0.06s WALL (     803 calls)

     General routines
     calbec       :      0.11s CPU      0.13s WALL (    1199 calls)
     fft          :      0.08s CPU      0.08s WALL (      85 calls)
     ffts         :      0.01s CPU      0.01s WALL (      12 calls)
     fftw         :      1.83s CPU      1.84s WALL (    9934 calls)
     interpolate  :      0.01s CPU      0.01s WALL (       6 calls)

     Parallel routines

     PWSCF        :      3.93s CPU      4.17s WALL


   This run was terminated on:   9:10:58  28Jan2025            

=------------------------------------------------------------------------------=
   JOB DONE.
=------------------------------------------------------------------------------=
Note: The following floating-point exceptions are signalling: IEEE_INVALID_FLAG IEEE_DIVIDE_BY_ZERO IEEE_OVERFLOW_FLAG IEEE_UNDERFLOW_FLAG
