[Williams-MacBook-Air.local:93726] shmem: mmap: an error occurred while determining whether or not /var/folders/hy/k_vp1md94sz2dr40dtrs6ln80000gn/T//ompi.Williams-MacBook-Air.501/jf.0/2843148288/sm_segment.Williams-MacBook-Air.501.a9770000.0 could be created.

     Program PWSCF v.7.3.1 starts on 28Jan2025 at  9:13: 0 

     This program is part of the open-source Quantum ESPRESSO suite
     for quantum simulation of materials; please cite
         "P. Giannozzi et al., J. Phys.:Condens. Matter 21 395502 (2009);
         "P. Giannozzi et al., J. Phys.:Condens. Matter 29 465901 (2017);
         "P. Giannozzi et al., J. Chem. Phys. 152 154105 (2020);
          URL http://www.quantum-espresso.org", 
     in publications or presentations arising from this work. More details at
     http://www.quantum-espresso.org/quote

     Parallel version (MPI), running on     1 processors

     MPI processes distributed on     1 nodes
     0 MiB available memory on the printing compute node when the environment starts

     Reading input from Li_config_28.in

     Current dimensions of program PWSCF are:
     Max number of different atomic species (ntypx) = 10
     Max number of k-points (npk) =  40000
     Max angular momentum in pseudopotentials (lmaxx) =  4

     Subspace diagonalization in iterative solution of the eigenvalue problem:
     a serial algorithm will be used


     G-vector sticks info
     --------------------
     sticks:   dense  smooth     PW     G-vecs:    dense   smooth      PW
     Sum        3233    1305    373               137545    34889    5497

     Using Slab Decomposition



     bravais-lattice index     =            1
     lattice parameter (alat)  =      11.6152  a.u.
     unit-cell volume          =    1567.0226 (a.u.)^3
     number of atoms/cell      =            2
     number of atomic types    =            1
     number of electrons       =         6.00
     number of Kohn-Sham states=            7
     kinetic-energy cutoff     =      30.0000  Ry
     charge density cutoff     =     300.0000  Ry
     scf convergence threshold =      1.0E-08
     mixing beta               =       0.7000
     number of iterations used =            8  plain     mixing
     Exchange-correlation= SLA  PW   PBX  PBC
                           (   1   4   3   4   0   0   0)

     celldm(1)=  11.615157  celldm(2)=   0.000000  celldm(3)=   0.000000
     celldm(4)=   0.000000  celldm(5)=   0.000000  celldm(6)=   0.000000

     crystal axes: (cart. coord. in units of alat)
               a(1) = (   1.000000   0.000000   0.000000 )  
               a(2) = (   0.000000   1.000000   0.000000 )  
               a(3) = (   0.000000   0.000000   1.000000 )  

     reciprocal axes: (cart. coord. in units 2 pi/alat)
               b(1) = (  1.000000  0.000000  0.000000 )  
               b(2) = (  0.000000  1.000000  0.000000 )  
               b(3) = (  0.000000  0.000000  1.000000 )  


     PseudoPot. # 1 for Li read from file:
     ../../pseudopotentials/Li.pbe-s-kjpaw_psl.1.0.0.UPF
     MD5 check sum: d3662511b3860c829f7212fdb89d6128
     Pseudo is Projector augmented-wave, Zval =  3.0
     Generated using &quot;atomic&quot; code by A. Dal Corso  v.6.3
     Shape of augmentation charge: PSQ
     Using radial grid of 1017 points,  4 beta functions with: 
                l(1) =   0
                l(2) =   0
                l(3) =   1
                l(4) =   1
     Q(r) pseudized with 0 coefficients 


     atomic species   valence    mass     pseudopotential
     Li                3.00     6.94000     Li( 1.00)

     No symmetry found



   Cartesian axes

     site n.     atom                  positions (alat units)
         1        Li     tau(   1) = (   0.1200280   0.9063550   0.0301070  )
         2        Li     tau(   2) = (   0.3574310   0.6370660   0.5274510  )

     number of k points=    36  Gaussian smearing, width (Ry)=  0.0100
                       cart. coord. in units 2pi/alat
        k(    1) = (   0.0000000   0.0000000   0.0000000), wk =   0.0312500
        k(    2) = (   0.0000000   0.0000000   0.2500000), wk =   0.0625000
        k(    3) = (   0.0000000   0.0000000  -0.5000000), wk =   0.0312500
        k(    4) = (   0.0000000   0.2500000   0.2500000), wk =   0.0625000
        k(    5) = (   0.0000000   0.2500000  -0.5000000), wk =   0.0625000
        k(    6) = (   0.0000000  -0.5000000  -0.5000000), wk =   0.0312500
        k(    7) = (   0.2500000   0.2500000   0.2500000), wk =   0.0625000
        k(    8) = (   0.2500000   0.2500000  -0.5000000), wk =   0.0625000
        k(    9) = (   0.2500000  -0.5000000  -0.5000000), wk =   0.0625000
        k(   10) = (  -0.5000000  -0.5000000  -0.5000000), wk =   0.0312500
        k(   11) = (   0.2500000   0.0000000   0.0000000), wk =   0.0625000
        k(   12) = (   0.0000000   0.2500000   0.0000000), wk =   0.0625000
        k(   13) = (  -0.5000000   0.0000000   0.0000000), wk =   0.0312500
        k(   14) = (   0.0000000  -0.5000000   0.0000000), wk =   0.0312500
        k(   15) = (   0.0000000  -0.2500000   0.2500000), wk =   0.0625000
        k(   16) = (   0.2500000   0.0000000  -0.2500000), wk =   0.0625000
        k(   17) = (  -0.2500000   0.0000000  -0.2500000), wk =   0.0625000
        k(   18) = (   0.2500000  -0.2500000   0.0000000), wk =   0.0625000
        k(   19) = (  -0.2500000  -0.2500000   0.0000000), wk =   0.0625000
        k(   20) = (   0.2500000   0.0000000   0.5000000), wk =   0.0625000
        k(   21) = (  -0.5000000  -0.2500000   0.0000000), wk =   0.0625000
        k(   22) = (   0.0000000  -0.5000000   0.2500000), wk =   0.0625000
        k(   23) = (   0.2500000  -0.5000000   0.0000000), wk =   0.0625000
        k(   24) = (  -0.5000000   0.0000000   0.2500000), wk =   0.0625000
        k(   25) = (  -0.5000000   0.0000000   0.5000000), wk =   0.0312500
        k(   26) = (  -0.5000000   0.5000000   0.0000000), wk =   0.0312500
        k(   27) = (  -0.2500000  -0.2500000   0.2500000), wk =   0.0625000
        k(   28) = (  -0.2500000   0.2500000  -0.2500000), wk =   0.0625000
        k(   29) = (   0.2500000  -0.2500000  -0.2500000), wk =   0.0625000
        k(   30) = (  -0.2500000   0.2500000   0.5000000), wk =   0.0625000
        k(   31) = (  -0.5000000  -0.2500000   0.2500000), wk =   0.0625000
        k(   32) = (   0.5000000  -0.2500000  -0.2500000), wk =   0.0625000
        k(   33) = (  -0.2500000  -0.5000000   0.2500000), wk =   0.0625000
        k(   34) = (  -0.2500000   0.5000000  -0.2500000), wk =   0.0625000
        k(   35) = (  -0.5000000   0.2500000   0.5000000), wk =   0.0625000
        k(   36) = (  -0.5000000   0.5000000   0.2500000), wk =   0.0625000

     Dense  grid:   137545 G-vectors     FFT dimensions: (  72,  72,  72)

     Smooth grid:    34889 G-vectors     FFT dimensions: (  45,  45,  45)

     Estimated max dynamical RAM per process >     205.62 MB

     Initial potential from superposition of free atoms

     starting charge       5.9908, renormalised to       6.0000
     Starting wfcs are   10 randomized atomic wfcs
     Checking if some PAW data can be deallocated... 

     total cpu time spent up to now is        0.7 secs

     Self-consistent Calculation

     iteration #  1     ecut=    30.00 Ry     beta= 0.70
     Davidson diagonalization with overlap
     ethr =  1.00E-02,  avg # of iterations =  2.0

     Threshold (ethr) on eigenvalues was too large:
     Diagonalizing with lowered threshold

     Davidson diagonalization with overlap
     ethr =  3.65E-04,  avg # of iterations =  1.6

     total cpu time spent up to now is        2.7 secs

     total energy              =     -29.78357081 Ry
     estimated scf accuracy    <       0.02389376 Ry

     iteration #  2     ecut=    30.00 Ry     beta= 0.70
     Davidson diagonalization with overlap
     ethr =  3.98E-04,  avg # of iterations =  1.0

     total cpu time spent up to now is        3.6 secs

     total energy              =     -29.78436231 Ry
     estimated scf accuracy    <       0.00122768 Ry

     iteration #  3     ecut=    30.00 Ry     beta= 0.70
     Davidson diagonalization with overlap
     ethr =  2.05E-05,  avg # of iterations =  2.6

     total cpu time spent up to now is        4.7 secs

     total energy              =     -29.78457120 Ry
     estimated scf accuracy    <       0.00002216 Ry

     iteration #  4     ecut=    30.00 Ry     beta= 0.70
     Davidson diagonalization with overlap
     ethr =  3.69E-07,  avg # of iterations =  4.7

     total cpu time spent up to now is        6.1 secs

     total energy              =     -29.78459831 Ry
     estimated scf accuracy    <       0.00000213 Ry

     iteration #  5     ecut=    30.00 Ry     beta= 0.70
     Davidson diagonalization with overlap
     ethr =  3.55E-08,  avg # of iterations =  2.3

     total cpu time spent up to now is        7.1 secs

     total energy              =     -29.78460242 Ry
     estimated scf accuracy    <       0.00000013 Ry

     iteration #  6     ecut=    30.00 Ry     beta= 0.70
     Davidson diagonalization with overlap
     ethr =  2.19E-09,  avg # of iterations =  3.4

     total cpu time spent up to now is        8.2 secs

     total energy              =     -29.78460267 Ry
     estimated scf accuracy    <       0.00000001 Ry

     iteration #  7     ecut=    30.00 Ry     beta= 0.70
     Davidson diagonalization with overlap
     ethr =  2.30E-10,  avg # of iterations =  2.9

     total cpu time spent up to now is        9.3 secs

     End of self-consistent calculation

          k = 0.0000 0.0000 0.0000 (  4385 PWs)   bands (ev):

   -51.4638 -51.4555  -3.1287  -0.2465   0.1855   0.3783   0.4903

          k = 0.0000 0.0000 0.2500 (  4316 PWs)   bands (ev):

   -51.4398 -51.4381  -2.9098  -1.2263   0.3568   0.5009   0.6831

          k = 0.0000 0.0000-0.5000 (  4356 PWs)   bands (ev):

   -51.4519 -51.4508  -2.2700  -2.2609   0.5908   0.5948   1.0455

          k = 0.0000 0.2500 0.2500 (  4342 PWs)   bands (ev):

   -51.4483 -51.4460  -2.7189  -1.0568  -0.7554   0.5703   0.7503

          k = 0.0000 0.2500-0.5000 (  4364 PWs)   bands (ev):

   -51.4549 -51.4537  -2.0857  -2.0764  -0.1434  -0.1333   0.9908

          k = 0.0000-0.5000-0.5000 (  4388 PWs)   bands (ev):

   -51.4617 -51.4609  -1.7734  -1.7637  -0.8315  -0.8211   1.1316

          k = 0.2500 0.2500 0.2500 (  4347 PWs)   bands (ev):

   -51.4533 -51.4452  -2.5352  -0.8988  -0.6000  -0.5276   0.8532

          k = 0.2500 0.2500-0.5000 (  4360 PWs)   bands (ev):

   -51.4538 -51.4524  -1.9100  -1.9005  -0.1162  -0.1143   0.2850

          k = 0.2500-0.5000-0.5000 (  4336 PWs)   bands (ev):

   -51.4460 -51.4452  -1.6070  -1.5971  -0.6617  -0.6516   0.3765

          k =-0.5000-0.5000-0.5000 (  4272 PWs)   bands (ev):

   -51.4270 -51.4264  -1.3480  -1.3377  -0.4242  -0.4155  -0.2170

          k = 0.2500 0.0000 0.0000 (  4316 PWs)   bands (ev):

   -51.4433 -51.4346  -2.9389  -0.9217  -0.1219   0.4784   0.5886

          k = 0.0000 0.2500 0.0000 (  4316 PWs)   bands (ev):

   -51.4399 -51.4380  -2.9331  -0.9684  -0.1097   0.4408   0.7266

          k =-0.5000 0.0000 0.0000 (  4356 PWs)   bands (ev):

   -51.4545 -51.4483  -2.6201  -1.6601   0.0359   0.7088   0.7238

          k = 0.0000-0.5000 0.0000 (  4356 PWs)   bands (ev):

   -51.4546 -51.4482  -2.5893  -1.7335   0.0701   0.6696   0.8452

          k = 0.0000-0.2500 0.2500 (  4342 PWs)   bands (ev):

   -51.4492 -51.4451  -2.7191  -1.0562  -0.7546   0.5655   0.7508

          k = 0.2500 0.0000-0.2500 (  4342 PWs)   bands (ev):

   -51.4500 -51.4443  -2.7249  -1.0652  -0.7074   0.5809   0.7179

          k =-0.2500 0.0000-0.2500 (  4342 PWs)   bands (ev):

   -51.4490 -51.4453  -2.7251  -1.0647  -0.7067   0.5755   0.7196

          k = 0.2500-0.2500 0.0000 (  4342 PWs)   bands (ev):

   -51.4560 -51.4384  -2.7501  -0.8193  -0.7029   0.0128   0.8836

          k =-0.2500-0.2500 0.0000 (  4342 PWs)   bands (ev):

   -51.4503 -51.4440  -2.7477  -0.8028  -0.7395   0.0067   1.0471

          k = 0.2500 0.0000 0.5000 (  4364 PWs)   bands (ev):

   -51.4552 -51.4534  -2.0925  -2.0832  -0.0938  -0.0838   0.9513

          k =-0.5000-0.2500 0.0000 (  4364 PWs)   bands (ev):

   -51.4581 -51.4505  -2.4362  -1.4661  -0.5215   0.1591   0.5134

          k = 0.0000-0.5000 0.2500 (  4364 PWs)   bands (ev):

   -51.4564 -51.4523  -2.3825  -1.5047  -0.7886   0.2430   0.8316

          k = 0.2500-0.5000 0.0000 (  4364 PWs)   bands (ev):

   -51.4572 -51.4514  -2.4112  -1.5477  -0.4415   0.1805   0.4883

          k =-0.5000 0.0000 0.2500 (  4364 PWs)   bands (ev):

   -51.4556 -51.4530  -2.4137  -1.4297  -0.8208   0.3119   0.8560

          k =-0.5000 0.0000 0.5000 (  4388 PWs)   bands (ev):

   -51.4628 -51.4598  -1.8048  -1.7954  -0.7536  -0.7431   1.0755

          k =-0.5000 0.5000 0.0000 (  4388 PWs)   bands (ev):

   -51.4679 -51.4548  -2.1145  -1.2504  -1.1308  -0.1671   0.3151

          k =-0.2500-0.2500 0.2500 (  4347 PWs)   bands (ev):

   -51.4533 -51.4452  -2.5353  -0.8986  -0.5992  -0.5283   0.8528

          k =-0.2500 0.2500-0.2500 (  4347 PWs)   bands (ev):

   -51.4516 -51.4469  -2.5376  -0.8999  -0.6223  -0.4708   0.7053

          k = 0.2500-0.2500-0.2500 (  4347 PWs)   bands (ev):

   -51.4507 -51.4478  -2.5374  -0.9012  -0.6234  -0.4706   0.7128

          k =-0.2500 0.2500 0.5000 (  4360 PWs)   bands (ev):

   -51.4539 -51.4523  -1.9124  -1.9029  -0.0595  -0.0513   0.2070

          k =-0.5000-0.2500 0.2500 (  4360 PWs)   bands (ev):

   -51.4565 -51.4497  -2.2318  -1.2386  -0.6675  -0.3166   0.3781

          k = 0.5000-0.2500-0.2500 (  4360 PWs)   bands (ev):

   -51.4556 -51.4506  -2.2317  -1.2385  -0.6686  -0.3172   0.3804

          k =-0.2500-0.5000 0.2500 (  4360 PWs)   bands (ev):

   -51.4563 -51.4499  -2.2071  -1.3214  -0.6445  -0.2421   0.3410

          k =-0.2500 0.5000-0.2500 (  4360 PWs)   bands (ev):

   -51.4570 -51.4492  -2.2072  -1.3214  -0.6435  -0.2414   0.3383

          k =-0.5000 0.2500 0.5000 (  4336 PWs)   bands (ev):

   -51.4464 -51.4448  -1.6310  -1.6212  -0.5792  -0.5692   0.2993

          k =-0.5000 0.5000 0.2500 (  4336 PWs)   bands (ev):

   -51.4483 -51.4429  -1.9188  -1.0374  -0.9004  -0.4238  -0.0249

     the Fermi energy is    -1.8580 ev

!    total energy              =     -29.78460269 Ry
     total all-electron energy =       -29.784625 Ry
     estimated scf accuracy    <          9.9E-10 Ry
     smearing contrib. (-TS)   =      -0.00115402 Ry
     internal energy E=F+TS    =     -29.78344867 Ry

     The total energy is F=E-TS. E is the sum of the following terms:
     one-electron contribution =     -28.58706304 Ry
     hartree contribution      =      10.64325280 Ry
     xc contribution           =      -6.75315648 Ry
     ewald contribution        =      -5.23104156 Ry
     one-center paw contrib.   =       0.14455961 Ry

     convergence has been achieved in   7 iterations

     Forces acting on atoms (cartesian axes, Ry/au):

     atom    1 type  1   force =     0.00454902   -0.00498348    0.00008334
     atom    2 type  1   force =    -0.00454902    0.00498348   -0.00008334

     Total force =     0.009543     Total SCF correction =     0.000008


     Computing stress (Cartesian axis) and pressure

          total   stress  (Ry/bohr**3)                   (kbar)     P=      -45.05
  -0.00029018   0.00000486  -0.00000006          -42.69        0.72       -0.01
   0.00000486  -0.00029756   0.00000006            0.72      -43.77        0.01
  -0.00000006   0.00000006  -0.00033107           -0.01        0.01      -48.70


     Writing all to output data dir ./tmp/Li_config_28.save/ :
     XML data file, charge density, pseudopotentials, collected wavefunctions

     init_run     :      0.68s CPU      0.72s WALL (       1 calls)
     electrons    :      8.18s CPU      8.52s WALL (       1 calls)
     forces       :      0.11s CPU      0.12s WALL (       1 calls)
     stress       :      0.57s CPU      0.60s WALL (       1 calls)

     Called by init_run:
     wfcinit      :      0.43s CPU      0.45s WALL (       1 calls)
     potinit      :      0.11s CPU      0.12s WALL (       1 calls)
     hinit0       :      0.08s CPU      0.08s WALL (       1 calls)

     Called by electrons:
     c_bands      :      5.81s CPU      6.02s WALL (       8 calls)
     sum_band     :      1.44s CPU      1.49s WALL (       8 calls)
     v_of_rho     :      0.54s CPU      0.58s WALL (       8 calls)
     newd         :      0.26s CPU      0.30s WALL (       8 calls)
     PAW_pot      :      0.17s CPU      0.17s WALL (       8 calls)
     mix_rho      :      0.04s CPU      0.05s WALL (       8 calls)

     Called by c_bands:
     init_us_2    :      0.17s CPU      0.18s WALL (     684 calls)
     cegterg      :      5.63s CPU      5.83s WALL (     288 calls)

     Called by *egterg:
     cdiaghg      :      0.03s CPU      0.03s WALL (     990 calls)
     h_psi        :      5.29s CPU      5.38s WALL (    1062 calls)
     s_psi        :      0.11s CPU      0.13s WALL (    1062 calls)
     g_psi        :      0.01s CPU      0.01s WALL (     738 calls)

     Called by h_psi:
     h_psi:calbec :      0.15s CPU      0.18s WALL (    1062 calls)
     vloc_psi     :      4.99s CPU      5.03s WALL (    1062 calls)
     add_vuspsi   :      0.12s CPU      0.15s WALL (    1062 calls)

     General routines
     calbec       :      0.24s CPU      0.28s WALL (    1530 calls)
     fft          :      0.27s CPU      0.27s WALL (     111 calls)
     ffts         :      0.01s CPU      0.01s WALL (      16 calls)
     fftw         :      4.78s CPU      4.81s WALL (   12744 calls)
     interpolate  :      0.03s CPU      0.03s WALL (       8 calls)

     Parallel routines

     PWSCF        :      9.57s CPU     10.03s WALL


   This run was terminated on:   9:13:10  28Jan2025            

=------------------------------------------------------------------------------=
   JOB DONE.
=------------------------------------------------------------------------------=
Note: The following floating-point exceptions are signalling: IEEE_INVALID_FLAG IEEE_DIVIDE_BY_ZERO IEEE_OVERFLOW_FLAG IEEE_UNDERFLOW_FLAG
