[Williams-MacBook-Air.local:93582] shmem: mmap: an error occurred while determining whether or not /var/folders/hy/k_vp1md94sz2dr40dtrs6ln80000gn/T//ompi.Williams-MacBook-Air.501/jf.0/850788352/sm_segment.Williams-MacBook-Air.501.32b60000.0 could be created.

     Program PWSCF v.7.3.1 starts on 28Jan2025 at  9:10:31 

     This program is part of the open-source Quantum ESPRESSO suite
     for quantum simulation of materials; please cite
         "P. Giannozzi et al., J. Phys.:Condens. Matter 21 395502 (2009);
         "P. Giannozzi et al., J. Phys.:Condens. Matter 29 465901 (2017);
         "P. Giannozzi et al., J. Chem. Phys. 152 154105 (2020);
          URL http://www.quantum-espresso.org", 
     in publications or presentations arising from this work. More details at
     http://www.quantum-espresso.org/quote

     Parallel version (MPI), running on     1 processors

     MPI processes distributed on     1 nodes
     0 MiB available memory on the printing compute node when the environment starts

     Reading input from Li_config_3.in

     Current dimensions of program PWSCF are:
     Max number of different atomic species (ntypx) = 10
     Max number of k-points (npk) =  40000
     Max angular momentum in pseudopotentials (lmaxx) =  4

     Subspace diagonalization in iterative solution of the eigenvalue problem:
     a serial algorithm will be used


     G-vector sticks info
     --------------------
     sticks:   dense  smooth     PW     G-vecs:    dense   smooth      PW
     Sum        2017     797    241                67715    17077    2945

     Using Slab Decomposition



     bravais-lattice index     =            1
     lattice parameter (alat)  =       9.1776  a.u.
     unit-cell volume          =     773.0251 (a.u.)^3
     number of atoms/cell      =            2
     number of atomic types    =            1
     number of electrons       =         6.00
     number of Kohn-Sham states=            7
     kinetic-energy cutoff     =      30.0000  Ry
     charge density cutoff     =     300.0000  Ry
     scf convergence threshold =      1.0E-08
     mixing beta               =       0.7000
     number of iterations used =            8  plain     mixing
     Exchange-correlation= SLA  PW   PBX  PBC
                           (   1   4   3   4   0   0   0)

     celldm(1)=   9.177644  celldm(2)=   0.000000  celldm(3)=   0.000000
     celldm(4)=   0.000000  celldm(5)=   0.000000  celldm(6)=   0.000000

     crystal axes: (cart. coord. in units of alat)
               a(1) = (   1.000000   0.000000   0.000000 )  
               a(2) = (   0.000000   1.000000   0.000000 )  
               a(3) = (   0.000000   0.000000   1.000000 )  

     reciprocal axes: (cart. coord. in units 2 pi/alat)
               b(1) = (  1.000000  0.000000  0.000000 )  
               b(2) = (  0.000000  1.000000  0.000000 )  
               b(3) = (  0.000000  0.000000  1.000000 )  


     PseudoPot. # 1 for Li read from file:
     ../../pseudopotentials/Li.pbe-s-kjpaw_psl.1.0.0.UPF
     MD5 check sum: d3662511b3860c829f7212fdb89d6128
     Pseudo is Projector augmented-wave, Zval =  3.0
     Generated using &quot;atomic&quot; code by A. Dal Corso  v.6.3
     Shape of augmentation charge: PSQ
     Using radial grid of 1017 points,  4 beta functions with: 
                l(1) =   0
                l(2) =   0
                l(3) =   1
                l(4) =   1
     Q(r) pseudized with 0 coefficients 


     atomic species   valence    mass     pseudopotential
     Li                3.00     6.94000     Li( 1.00)

     No symmetry found



   Cartesian axes

     site n.     atom                  positions (alat units)
         1        Li     tau(   1) = (   0.8986110   0.0665470   0.0314320  )
         2        Li     tau(   2) = (   0.4861540   0.6413010   0.5203320  )

     number of k points=    36  Gaussian smearing, width (Ry)=  0.0100
                       cart. coord. in units 2pi/alat
        k(    1) = (   0.0000000   0.0000000   0.0000000), wk =   0.0312500
        k(    2) = (   0.0000000   0.0000000   0.2500000), wk =   0.0625000
        k(    3) = (   0.0000000   0.0000000  -0.5000000), wk =   0.0312500
        k(    4) = (   0.0000000   0.2500000   0.2500000), wk =   0.0625000
        k(    5) = (   0.0000000   0.2500000  -0.5000000), wk =   0.0625000
        k(    6) = (   0.0000000  -0.5000000  -0.5000000), wk =   0.0312500
        k(    7) = (   0.2500000   0.2500000   0.2500000), wk =   0.0625000
        k(    8) = (   0.2500000   0.2500000  -0.5000000), wk =   0.0625000
        k(    9) = (   0.2500000  -0.5000000  -0.5000000), wk =   0.0625000
        k(   10) = (  -0.5000000  -0.5000000  -0.5000000), wk =   0.0312500
        k(   11) = (   0.2500000   0.0000000   0.0000000), wk =   0.0625000
        k(   12) = (   0.0000000   0.2500000   0.0000000), wk =   0.0625000
        k(   13) = (  -0.5000000   0.0000000   0.0000000), wk =   0.0312500
        k(   14) = (   0.0000000  -0.5000000   0.0000000), wk =   0.0312500
        k(   15) = (   0.0000000  -0.2500000   0.2500000), wk =   0.0625000
        k(   16) = (   0.2500000   0.0000000  -0.2500000), wk =   0.0625000
        k(   17) = (  -0.2500000   0.0000000  -0.2500000), wk =   0.0625000
        k(   18) = (   0.2500000  -0.2500000   0.0000000), wk =   0.0625000
        k(   19) = (  -0.2500000  -0.2500000   0.0000000), wk =   0.0625000
        k(   20) = (   0.2500000   0.0000000   0.5000000), wk =   0.0625000
        k(   21) = (  -0.5000000  -0.2500000   0.0000000), wk =   0.0625000
        k(   22) = (   0.0000000  -0.5000000   0.2500000), wk =   0.0625000
        k(   23) = (   0.2500000  -0.5000000   0.0000000), wk =   0.0625000
        k(   24) = (  -0.5000000   0.0000000   0.2500000), wk =   0.0625000
        k(   25) = (  -0.5000000   0.0000000   0.5000000), wk =   0.0312500
        k(   26) = (  -0.5000000   0.5000000   0.0000000), wk =   0.0312500
        k(   27) = (  -0.2500000  -0.2500000   0.2500000), wk =   0.0625000
        k(   28) = (  -0.2500000   0.2500000  -0.2500000), wk =   0.0625000
        k(   29) = (   0.2500000  -0.2500000  -0.2500000), wk =   0.0625000
        k(   30) = (  -0.2500000   0.2500000   0.5000000), wk =   0.0625000
        k(   31) = (  -0.5000000  -0.2500000   0.2500000), wk =   0.0625000
        k(   32) = (   0.5000000  -0.2500000  -0.2500000), wk =   0.0625000
        k(   33) = (  -0.2500000  -0.5000000   0.2500000), wk =   0.0625000
        k(   34) = (  -0.2500000   0.5000000  -0.2500000), wk =   0.0625000
        k(   35) = (  -0.5000000   0.2500000   0.5000000), wk =   0.0625000
        k(   36) = (  -0.5000000   0.5000000   0.2500000), wk =   0.0625000

     Dense  grid:    67715 G-vectors     FFT dimensions: (  54,  54,  54)

     Smooth grid:    17077 G-vectors     FFT dimensions: (  36,  36,  36)

     Estimated max dynamical RAM per process >      99.64 MB

     Initial potential from superposition of free atoms

     starting charge       5.9908, renormalised to       6.0000
     Starting wfcs are   10 randomized atomic wfcs
     Checking if some PAW data can be deallocated... 

     total cpu time spent up to now is        0.4 secs

     Self-consistent Calculation

     iteration #  1     ecut=    30.00 Ry     beta= 0.70
     Davidson diagonalization with overlap
     ethr =  1.00E-02,  avg # of iterations =  2.3

     Threshold (ethr) on eigenvalues was too large:
     Diagonalizing with lowered threshold

     Davidson diagonalization with overlap
     ethr =  2.44E-04,  avg # of iterations =  1.6

     total cpu time spent up to now is        1.4 secs

     total energy              =     -29.85416083 Ry
     estimated scf accuracy    <       0.01521507 Ry

     iteration #  2     ecut=    30.00 Ry     beta= 0.70
     Davidson diagonalization with overlap
     ethr =  2.54E-04,  avg # of iterations =  1.0

     total cpu time spent up to now is        1.8 secs

     total energy              =     -29.85473237 Ry
     estimated scf accuracy    <       0.00076460 Ry

     iteration #  3     ecut=    30.00 Ry     beta= 0.70
     Davidson diagonalization with overlap
     ethr =  1.27E-05,  avg # of iterations =  4.8

     total cpu time spent up to now is        2.4 secs

     total energy              =     -29.85481978 Ry
     estimated scf accuracy    <       0.00000628 Ry

     iteration #  4     ecut=    30.00 Ry     beta= 0.70
     Davidson diagonalization with overlap
     ethr =  1.05E-07,  avg # of iterations =  4.4

     total cpu time spent up to now is        3.0 secs

     total energy              =     -29.85482147 Ry
     estimated scf accuracy    <       0.00000006 Ry

     iteration #  5     ecut=    30.00 Ry     beta= 0.70
     Davidson diagonalization with overlap
     ethr =  1.02E-09,  avg # of iterations =  3.0

     total cpu time spent up to now is        3.5 secs

     End of self-consistent calculation

          k = 0.0000 0.0000 0.0000 (  2109 PWs)   bands (ev):

   -50.2578 -50.2394  -3.2471   1.5826   1.6467   1.7191   3.0462

          k = 0.0000 0.0000 0.2500 (  2120 PWs)   bands (ev):

   -50.2566 -50.2500  -2.9007  -0.1544   1.9966   2.0798   3.3729

          k = 0.0000 0.0000-0.5000 (  2104 PWs)   bands (ev):

   -50.2461 -50.2438  -1.8736  -1.8444   2.8990   2.9880   3.0554

          k = 0.0000 0.2500 0.2500 (  2125 PWs)   bands (ev):

   -50.2622 -50.2512  -2.5541  -0.0406   0.5033   2.3736   3.0148

          k = 0.0000 0.2500-0.5000 (  2142 PWs)   bands (ev):

   -50.2708 -50.2645  -1.5415  -1.5101   1.3161   1.3726   3.2765

          k = 0.0000-0.5000-0.5000 (  2160 PWs)   bands (ev):

   -50.2821 -50.2755  -0.8199  -0.8078  -0.0299  -0.0070   3.7295

          k = 0.2500 0.2500 0.2500 (  2157 PWs)   bands (ev):

   -50.2852 -50.2669  -2.2110   0.3202   0.3722   1.1102   3.1735

          k = 0.2500 0.2500-0.5000 (  2166 PWs)   bands (ev):

   -50.2844 -50.2789  -1.2071  -1.1730   1.4690   1.5574   1.8493

          k = 0.2500-0.5000-0.5000 (  2136 PWs)   bands (ev):

   -50.2660 -50.2586  -0.4577  -0.4401   0.2490   0.2781   2.5252

          k =-0.5000-0.5000-0.5000 (  2176 PWs)   bands (ev):

   -50.2866 -50.2841   0.3194   0.3568   0.7307   0.8179   1.2291

          k = 0.2500 0.0000 0.0000 (  2120 PWs)   bands (ev):

   -50.2610 -50.2457  -2.8999  -0.1264   1.9331   2.0082   3.4413

          k = 0.0000 0.2500 0.0000 (  2120 PWs)   bands (ev):

   -50.2613 -50.2454  -2.8998  -0.1337   1.9378   2.0395   3.3757

          k =-0.5000 0.0000 0.0000 (  2104 PWs)   bands (ev):

   -50.2509 -50.2390  -1.9641  -1.7338   2.6654   2.7049   3.3868

          k = 0.0000-0.5000 0.0000 (  2104 PWs)   bands (ev):

   -50.2531 -50.2368  -1.9497  -1.7534   2.7109   2.7563   3.3106

          k = 0.0000-0.2500 0.2500 (  2125 PWs)   bands (ev):

   -50.2598 -50.2536  -2.5545  -0.0390   0.5050   2.3731   2.9920

          k = 0.2500 0.0000-0.2500 (  2125 PWs)   bands (ev):

   -50.2615 -50.2519  -2.5545  -0.0331   0.5033   2.3489   2.9795

          k =-0.2500 0.0000-0.2500 (  2125 PWs)   bands (ev):

   -50.2626 -50.2508  -2.5542  -0.0348   0.5015   2.3491   3.0041

          k = 0.2500-0.2500 0.0000 (  2125 PWs)   bands (ev):

   -50.2594 -50.2540  -2.5540  -0.0205   0.4929   2.2755   3.0478

          k =-0.2500-0.2500 0.0000 (  2125 PWs)   bands (ev):

   -50.2629 -50.2505  -2.5554  -0.0123   0.5051   2.2819   2.9061

          k = 0.2500 0.0000 0.5000 (  2142 PWs)   bands (ev):

   -50.2699 -50.2653  -1.5415  -1.5102   1.3198   1.3761   3.2720

          k =-0.5000-0.2500 0.0000 (  2142 PWs)   bands (ev):

   -50.2766 -50.2587  -1.6380  -1.3906   1.1298   1.5696   2.9778

          k = 0.0000-0.5000 0.2500 (  2142 PWs)   bands (ev):

   -50.2702 -50.2650  -1.6238  -1.4110   1.1471   1.5262   3.0913

          k = 0.2500-0.5000 0.0000 (  2142 PWs)   bands (ev):

   -50.2763 -50.2590  -1.6231  -1.4118   1.1640   1.5409   3.0165

          k =-0.5000 0.0000 0.2500 (  2142 PWs)   bands (ev):

   -50.2680 -50.2672  -1.6390  -1.3898   1.1168   1.5580   3.0395

          k =-0.5000 0.0000 0.5000 (  2160 PWs)   bands (ev):

   -50.2797 -50.2780  -0.8225  -0.8086  -0.0261  -0.0004   3.7099

          k =-0.5000 0.5000 0.0000 (  2160 PWs)   bands (ev):

   -50.2807 -50.2769  -0.8604  -0.7705  -0.0860   0.0809   3.5412

          k =-0.2500-0.2500 0.2500 (  2157 PWs)   bands (ev):

   -50.2822 -50.2699  -2.2120   0.3238   0.3723   1.1148   3.1413

          k =-0.2500 0.2500-0.2500 (  2157 PWs)   bands (ev):

   -50.2774 -50.2747  -2.2095   0.3275   0.3550   1.0999   3.2721

          k = 0.2500-0.2500-0.2500 (  2157 PWs)   bands (ev):

   -50.2761 -50.2759  -2.2095   0.3265   0.3562   1.1000   3.2702

          k =-0.2500 0.2500 0.5000 (  2166 PWs)   bands (ev):

   -50.2837 -50.2795  -1.2021  -1.1684   1.3608   1.4305   1.9905

          k =-0.5000-0.2500 0.2500 (  2166 PWs)   bands (ev):

   -50.2883 -50.2749  -1.3090  -1.0392   1.1592   1.7277   1.9302

          k = 0.5000-0.2500-0.2500 (  2166 PWs)   bands (ev):

   -50.2881 -50.2752  -1.3084  -1.0384   1.1491   1.7020   1.9479

          k =-0.2500-0.5000 0.2500 (  2166 PWs)   bands (ev):

   -50.2856 -50.2776  -1.2932  -1.0627   1.2021   1.6984   1.9164

          k =-0.2500 0.5000-0.2500 (  2166 PWs)   bands (ev):

   -50.2872 -50.2760  -1.2924  -1.0619   1.1898   1.6697   1.9495

          k =-0.5000 0.2500 0.5000 (  2136 PWs)   bands (ev):

   -50.2654 -50.2592  -0.4614  -0.4413   0.2540   0.2872   2.4958

          k =-0.5000 0.5000 0.2500 (  2136 PWs)   bands (ev):

   -50.2637 -50.2609  -0.5141  -0.3835   0.1726   0.3914   2.3485

     the Fermi energy is    -1.2552 ev

!    total energy              =     -29.85482156 Ry
     total all-electron energy =       -29.854844 Ry
     estimated scf accuracy    <          9.6E-10 Ry
     smearing contrib. (-TS)   =      -0.00149205 Ry
     internal energy E=F+TS    =     -29.85332950 Ry

     The total energy is F=E-TS. E is the sum of the following terms:
     one-electron contribution =     -25.40713346 Ry
     hartree contribution      =       9.29215020 Ry
     xc contribution           =      -6.80018179 Ry
     ewald contribution        =      -7.08214430 Ry
     one-center paw contrib.   =       0.14397984 Ry

     convergence has been achieved in   5 iterations

     Forces acting on atoms (cartesian axes, Ry/au):

     atom    1 type  1   force =     0.00090951    0.00085401   -0.00010328
     atom    2 type  1   force =    -0.00090951   -0.00085401    0.00010328

     Total force =     0.001770     Total SCF correction =     0.000048


     Computing stress (Cartesian axis) and pressure

          total   stress  (Ry/bohr**3)                   (kbar)     P=      -98.03
  -0.00066207   0.00000487  -0.00000081          -97.39        0.72       -0.12
   0.00000487  -0.00066439  -0.00000072            0.72      -97.73       -0.11
  -0.00000081  -0.00000072  -0.00067277           -0.12       -0.11      -98.97


     Writing all to output data dir ./tmp/Li_config_3.save/ :
     XML data file, charge density, pseudopotentials, collected wavefunctions

     init_run     :      0.36s CPU      0.38s WALL (       1 calls)
     electrons    :      2.99s CPU      3.12s WALL (       1 calls)
     forces       :      0.05s CPU      0.06s WALL (       1 calls)
     stress       :      0.27s CPU      0.28s WALL (       1 calls)

     Called by init_run:
     wfcinit      :      0.20s CPU      0.21s WALL (       1 calls)
     potinit      :      0.06s CPU      0.06s WALL (       1 calls)
     hinit0       :      0.07s CPU      0.07s WALL (       1 calls)

     Called by electrons:
     c_bands      :      2.15s CPU      2.23s WALL (       6 calls)
     sum_band     :      0.50s CPU      0.52s WALL (       6 calls)
     v_of_rho     :      0.16s CPU      0.17s WALL (       6 calls)
     newd         :      0.09s CPU      0.11s WALL (       6 calls)
     PAW_pot      :      0.13s CPU      0.13s WALL (       6 calls)
     mix_rho      :      0.01s CPU      0.01s WALL (       6 calls)

     Called by c_bands:
     init_us_2    :      0.07s CPU      0.07s WALL (     540 calls)
     cegterg      :      2.08s CPU      2.17s WALL (     216 calls)

     Called by *egterg:
     cdiaghg      :      0.02s CPU      0.03s WALL (     796 calls)
     h_psi        :      1.95s CPU      1.99s WALL (     868 calls)
     s_psi        :      0.04s CPU      0.05s WALL (     868 calls)
     g_psi        :      0.01s CPU      0.01s WALL (     616 calls)

     Called by h_psi:
     h_psi:calbec :      0.06s CPU      0.08s WALL (     868 calls)
     vloc_psi     :      1.83s CPU      1.84s WALL (     868 calls)
     add_vuspsi   :      0.05s CPU      0.06s WALL (     868 calls)

     General routines
     calbec       :      0.10s CPU      0.12s WALL (    1264 calls)
     fft          :      0.08s CPU      0.08s WALL (      85 calls)
     ffts         :      0.01s CPU      0.01s WALL (      12 calls)
     fftw         :      1.76s CPU      1.77s WALL (   10072 calls)
     interpolate  :      0.01s CPU      0.01s WALL (       6 calls)

     Parallel routines

     PWSCF        :      3.70s CPU      3.93s WALL


   This run was terminated on:   9:10:35  28Jan2025            

=------------------------------------------------------------------------------=
   JOB DONE.
=------------------------------------------------------------------------------=
Note: The following floating-point exceptions are signalling: IEEE_INVALID_FLAG IEEE_DIVIDE_BY_ZERO IEEE_OVERFLOW_FLAG IEEE_UNDERFLOW_FLAG
