[Williams-MacBook-Air.local:93758] shmem: mmap: an error occurred while determining whether or not /var/folders/hy/k_vp1md94sz2dr40dtrs6ln80000gn/T//ompi.Williams-MacBook-Air.501/jf.0/1510146048/sm_segment.Williams-MacBook-Air.501.5a030000.0 could be created.

     Program PWSCF v.7.3.1 starts on 28Jan2025 at  9:13:46 

     This program is part of the open-source Quantum ESPRESSO suite
     for quantum simulation of materials; please cite
         "P. Giannozzi et al., J. Phys.:Condens. Matter 21 395502 (2009);
         "P. Giannozzi et al., J. Phys.:Condens. Matter 29 465901 (2017);
         "P. Giannozzi et al., J. Chem. Phys. 152 154105 (2020);
          URL http://www.quantum-espresso.org", 
     in publications or presentations arising from this work. More details at
     http://www.quantum-espresso.org/quote

     Parallel version (MPI), running on     1 processors

     MPI processes distributed on     1 nodes
     0 MiB available memory on the printing compute node when the environment starts

     Reading input from Li_config_36.in

     Current dimensions of program PWSCF are:
     Max number of different atomic species (ntypx) = 10
     Max number of k-points (npk) =  40000
     Max angular momentum in pseudopotentials (lmaxx) =  4

     Subspace diagonalization in iterative solution of the eigenvalue problem:
     a serial algorithm will be used


     G-vector sticks info
     --------------------
     sticks:   dense  smooth     PW     G-vecs:    dense   smooth      PW
     Sum        2353     949    293                85159    21631    3695

     Using Slab Decomposition



     bravais-lattice index     =            1
     lattice parameter (alat)  =       9.9062  a.u.
     unit-cell volume          =     972.1208 (a.u.)^3
     number of atoms/cell      =            2
     number of atomic types    =            1
     number of electrons       =         6.00
     number of Kohn-Sham states=            7
     kinetic-energy cutoff     =      30.0000  Ry
     charge density cutoff     =     300.0000  Ry
     scf convergence threshold =      1.0E-08
     mixing beta               =       0.7000
     number of iterations used =            8  plain     mixing
     Exchange-correlation= SLA  PW   PBX  PBC
                           (   1   4   3   4   0   0   0)

     celldm(1)=   9.906192  celldm(2)=   0.000000  celldm(3)=   0.000000
     celldm(4)=   0.000000  celldm(5)=   0.000000  celldm(6)=   0.000000

     crystal axes: (cart. coord. in units of alat)
               a(1) = (   1.000000   0.000000   0.000000 )  
               a(2) = (   0.000000   1.000000   0.000000 )  
               a(3) = (   0.000000   0.000000   1.000000 )  

     reciprocal axes: (cart. coord. in units 2 pi/alat)
               b(1) = (  1.000000  0.000000  0.000000 )  
               b(2) = (  0.000000  1.000000  0.000000 )  
               b(3) = (  0.000000  0.000000  1.000000 )  


     PseudoPot. # 1 for Li read from file:
     ../../pseudopotentials/Li.pbe-s-kjpaw_psl.1.0.0.UPF
     MD5 check sum: d3662511b3860c829f7212fdb89d6128
     Pseudo is Projector augmented-wave, Zval =  3.0
     Generated using &quot;atomic&quot; code by A. Dal Corso  v.6.3
     Shape of augmentation charge: PSQ
     Using radial grid of 1017 points,  4 beta functions with: 
                l(1) =   0
                l(2) =   0
                l(3) =   1
                l(4) =   1
     Q(r) pseudized with 0 coefficients 


     atomic species   valence    mass     pseudopotential
     Li                3.00     6.94000     Li( 1.00)

     No symmetry found



   Cartesian axes

     site n.     atom                  positions (alat units)
         1        Li     tau(   1) = (   0.0276260   0.0105840   0.9982030  )
         2        Li     tau(   2) = (   0.5275060   0.5841470   0.4695310  )

     number of k points=    36  Gaussian smearing, width (Ry)=  0.0100
                       cart. coord. in units 2pi/alat
        k(    1) = (   0.0000000   0.0000000   0.0000000), wk =   0.0312500
        k(    2) = (   0.0000000   0.0000000   0.2500000), wk =   0.0625000
        k(    3) = (   0.0000000   0.0000000  -0.5000000), wk =   0.0312500
        k(    4) = (   0.0000000   0.2500000   0.2500000), wk =   0.0625000
        k(    5) = (   0.0000000   0.2500000  -0.5000000), wk =   0.0625000
        k(    6) = (   0.0000000  -0.5000000  -0.5000000), wk =   0.0312500
        k(    7) = (   0.2500000   0.2500000   0.2500000), wk =   0.0625000
        k(    8) = (   0.2500000   0.2500000  -0.5000000), wk =   0.0625000
        k(    9) = (   0.2500000  -0.5000000  -0.5000000), wk =   0.0625000
        k(   10) = (  -0.5000000  -0.5000000  -0.5000000), wk =   0.0312500
        k(   11) = (   0.2500000   0.0000000   0.0000000), wk =   0.0625000
        k(   12) = (   0.0000000   0.2500000   0.0000000), wk =   0.0625000
        k(   13) = (  -0.5000000   0.0000000   0.0000000), wk =   0.0312500
        k(   14) = (   0.0000000  -0.5000000   0.0000000), wk =   0.0312500
        k(   15) = (   0.0000000  -0.2500000   0.2500000), wk =   0.0625000
        k(   16) = (   0.2500000   0.0000000  -0.2500000), wk =   0.0625000
        k(   17) = (  -0.2500000   0.0000000  -0.2500000), wk =   0.0625000
        k(   18) = (   0.2500000  -0.2500000   0.0000000), wk =   0.0625000
        k(   19) = (  -0.2500000  -0.2500000   0.0000000), wk =   0.0625000
        k(   20) = (   0.2500000   0.0000000   0.5000000), wk =   0.0625000
        k(   21) = (  -0.5000000  -0.2500000   0.0000000), wk =   0.0625000
        k(   22) = (   0.0000000  -0.5000000   0.2500000), wk =   0.0625000
        k(   23) = (   0.2500000  -0.5000000   0.0000000), wk =   0.0625000
        k(   24) = (  -0.5000000   0.0000000   0.2500000), wk =   0.0625000
        k(   25) = (  -0.5000000   0.0000000   0.5000000), wk =   0.0312500
        k(   26) = (  -0.5000000   0.5000000   0.0000000), wk =   0.0312500
        k(   27) = (  -0.2500000  -0.2500000   0.2500000), wk =   0.0625000
        k(   28) = (  -0.2500000   0.2500000  -0.2500000), wk =   0.0625000
        k(   29) = (   0.2500000  -0.2500000  -0.2500000), wk =   0.0625000
        k(   30) = (  -0.2500000   0.2500000   0.5000000), wk =   0.0625000
        k(   31) = (  -0.5000000  -0.2500000   0.2500000), wk =   0.0625000
        k(   32) = (   0.5000000  -0.2500000  -0.2500000), wk =   0.0625000
        k(   33) = (  -0.2500000  -0.5000000   0.2500000), wk =   0.0625000
        k(   34) = (  -0.2500000   0.5000000  -0.2500000), wk =   0.0625000
        k(   35) = (  -0.5000000   0.2500000   0.5000000), wk =   0.0625000
        k(   36) = (  -0.5000000   0.5000000   0.2500000), wk =   0.0625000

     Dense  grid:    85159 G-vectors     FFT dimensions: (  60,  60,  60)

     Smooth grid:    21631 G-vectors     FFT dimensions: (  36,  36,  36)

     Estimated max dynamical RAM per process >     126.44 MB

     Initial potential from superposition of free atoms

     starting charge       5.9908, renormalised to       6.0000
     Starting wfcs are   10 randomized atomic wfcs
     Checking if some PAW data can be deallocated... 

     total cpu time spent up to now is        0.5 secs

     Self-consistent Calculation

     iteration #  1     ecut=    30.00 Ry     beta= 0.70
     Davidson diagonalization with overlap
     ethr =  1.00E-02,  avg # of iterations =  2.0

     Threshold (ethr) on eigenvalues was too large:
     Diagonalizing with lowered threshold

     Davidson diagonalization with overlap
     ethr =  2.60E-04,  avg # of iterations =  1.6

     total cpu time spent up to now is        1.6 secs

     total energy              =     -29.82574023 Ry
     estimated scf accuracy    <       0.01613099 Ry

     iteration #  2     ecut=    30.00 Ry     beta= 0.70
     Davidson diagonalization with overlap
     ethr =  2.69E-04,  avg # of iterations =  1.0

     total cpu time spent up to now is        2.1 secs

     total energy              =     -29.82640908 Ry
     estimated scf accuracy    <       0.00089723 Ry

     iteration #  3     ecut=    30.00 Ry     beta= 0.70
     Davidson diagonalization with overlap
     ethr =  1.50E-05,  avg # of iterations =  3.3

     total cpu time spent up to now is        2.8 secs

     total energy              =     -29.82650942 Ry
     estimated scf accuracy    <       0.00000999 Ry

     iteration #  4     ecut=    30.00 Ry     beta= 0.70
     Davidson diagonalization with overlap
     ethr =  1.67E-07,  avg # of iterations =  4.7

     total cpu time spent up to now is        3.5 secs

     total energy              =     -29.82651192 Ry
     estimated scf accuracy    <       0.00000010 Ry

     iteration #  5     ecut=    30.00 Ry     beta= 0.70
     Davidson diagonalization with overlap
     ethr =  1.68E-09,  avg # of iterations =  2.8

     total cpu time spent up to now is        4.1 secs

     End of self-consistent calculation

          k = 0.0000 0.0000 0.0000 (  2721 PWs)   bands (ev):

   -50.9413 -50.9175  -3.2384   0.9905   0.9996   1.0630   2.1519

          k = 0.0000 0.0000 0.2500 (  2721 PWs)   bands (ev):

   -50.9345 -50.9270  -2.9340  -0.5263   1.2995   1.3614   2.3433

          k = 0.0000 0.0000-0.5000 (  2730 PWs)   bands (ev):

   -50.9376 -50.9326  -2.0656  -1.9759   2.0887   2.0924   2.2809

          k = 0.0000 0.2500 0.2500 (  2684 PWs)   bands (ev):

   -50.9175 -50.9094  -2.6290  -0.3534  -0.0663   1.5871   2.1319

          k = 0.0000 0.2500-0.5000 (  2700 PWs)   bands (ev):

   -50.9267 -50.9145  -1.7682  -1.6753   0.6522   0.7845   2.3303

          k = 0.0000-0.5000-0.5000 (  2704 PWs)   bands (ev):

   -50.9317 -50.9141  -1.0625  -1.0051  -0.5691  -0.4961   2.7048

          k = 0.2500 0.2500 0.2500 (  2698 PWs)   bands (ev):

   -50.9247 -50.9141  -2.3252  -0.0455  -0.0223   0.3361   2.2175

          k = 0.2500 0.2500-0.5000 (  2704 PWs)   bands (ev):

   -50.9270 -50.9164  -1.4690  -1.3714   0.8215   0.9546   1.1040

          k = 0.2500-0.5000-0.5000 (  2704 PWs)   bands (ev):

   -50.9234 -50.9189  -0.7520  -0.6802  -0.3023  -0.2158   1.6070

          k =-0.5000-0.5000-0.5000 (  2608 PWs)   bands (ev):

   -50.8729 -50.8729   0.0515   0.0519   0.3239   0.3245   0.6106

          k = 0.2500 0.0000 0.0000 (  2721 PWs)   bands (ev):

   -50.9357 -50.9258  -2.9337  -0.5295   1.3085   1.3659   2.3346

          k = 0.0000 0.2500 0.0000 (  2721 PWs)   bands (ev):

   -50.9332 -50.9283  -2.9351  -0.5092   1.2893   1.2990   2.4238

          k =-0.5000 0.0000 0.0000 (  2730 PWs)   bands (ev):

   -50.9351 -50.9351  -2.0220  -2.0216   2.1633   2.1682   2.2205

          k = 0.0000-0.5000 0.0000 (  2730 PWs)   bands (ev):

   -50.9410 -50.9292  -2.1295  -1.8996   1.9364   1.9390   2.5050

          k = 0.0000-0.2500 0.2500 (  2684 PWs)   bands (ev):

   -50.9158 -50.9110  -2.6300  -0.3484  -0.0651   1.5893   2.0832

          k = 0.2500 0.0000-0.2500 (  2684 PWs)   bands (ev):

   -50.9177 -50.9092  -2.6281  -0.3642  -0.0666   1.6470   2.1349

          k =-0.2500 0.0000-0.2500 (  2684 PWs)   bands (ev):

   -50.9177 -50.9091  -2.6281  -0.3642  -0.0666   1.6470   2.1348

          k = 0.2500-0.2500 0.0000 (  2684 PWs)   bands (ev):

   -50.9166 -50.9102  -2.6292  -0.3532  -0.0659   1.5976   2.1099

          k =-0.2500-0.2500 0.0000 (  2684 PWs)   bands (ev):

   -50.9166 -50.9102  -2.6292  -0.3532  -0.0659   1.5976   2.1101

          k = 0.2500 0.0000 0.5000 (  2700 PWs)   bands (ev):

   -50.9224 -50.9187  -1.7669  -1.6733   0.6377   0.7711   2.3521

          k =-0.5000-0.2500 0.0000 (  2700 PWs)   bands (ev):

   -50.9206 -50.9205  -1.7232  -1.7228   0.7171   0.7177   2.4301

          k = 0.0000-0.5000 0.2500 (  2700 PWs)   bands (ev):

   -50.9271 -50.9140  -1.8337  -1.5938   0.5406   0.8809   2.1962

          k = 0.2500-0.5000 0.0000 (  2700 PWs)   bands (ev):

   -50.9212 -50.9199  -1.8338  -1.5933   0.5383   0.8786   2.2035

          k =-0.5000 0.0000 0.2500 (  2700 PWs)   bands (ev):

   -50.9206 -50.9205  -1.7218  -1.7214   0.7055   0.7060   2.4325

          k =-0.5000 0.0000 0.5000 (  2704 PWs)   bands (ev):

   -50.9229 -50.9228  -1.0095  -1.0094  -0.5700  -0.5699   2.7807

          k =-0.5000 0.5000 0.0000 (  2704 PWs)   bands (ev):

   -50.9229 -50.9228  -1.0323  -1.0321  -0.5364  -0.5361   2.7555

          k =-0.2500-0.2500 0.2500 (  2698 PWs)   bands (ev):

   -50.9202 -50.9187  -2.3262  -0.0460  -0.0171   0.3384   2.1880

          k =-0.2500 0.2500-0.2500 (  2698 PWs)   bands (ev):

   -50.9202 -50.9187  -2.3262  -0.0460  -0.0170   0.3384   2.1876

          k = 0.2500-0.2500-0.2500 (  2698 PWs)   bands (ev):

   -50.9247 -50.9142  -2.3252  -0.0455  -0.0223   0.3361   2.2176

          k =-0.2500 0.2500 0.5000 (  2704 PWs)   bands (ev):

   -50.9270 -50.9164  -1.4690  -1.3714   0.8217   0.9548   1.1038

          k =-0.5000-0.2500 0.2500 (  2704 PWs)   bands (ev):

   -50.9217 -50.9217  -1.4226  -1.4222   0.9300   0.9304   1.0654

          k = 0.5000-0.2500-0.2500 (  2704 PWs)   bands (ev):

   -50.9217 -50.9216  -1.4215  -1.4211   0.8775   0.8778   1.1216

          k =-0.2500-0.5000 0.2500 (  2704 PWs)   bands (ev):

   -50.9283 -50.9151  -1.5380  -1.2850   0.6886   0.9637   1.1235

          k =-0.2500 0.5000-0.2500 (  2704 PWs)   bands (ev):

   -50.9283 -50.9151  -1.5380  -1.2850   0.6887   0.9639   1.1234

          k =-0.5000 0.2500 0.5000 (  2704 PWs)   bands (ev):

   -50.9212 -50.9211  -0.6893  -0.6891  -0.3045  -0.3043   1.7488

          k =-0.5000 0.5000 0.2500 (  2704 PWs)   bands (ev):

   -50.9212 -50.9211  -0.7155  -0.7152  -0.2629  -0.2625   1.6717

     the Fermi energy is    -1.4787 ev

!    total energy              =     -29.82651204 Ry
     total all-electron energy =       -29.826535 Ry
     estimated scf accuracy    <          2.2E-09 Ry
     smearing contrib. (-TS)   =      -0.00172115 Ry
     internal energy E=F+TS    =     -29.82479089 Ry

     The total energy is F=E-TS. E is the sum of the following terms:
     one-electron contribution =     -26.15000779 Ry
     hartree contribution      =       9.53173484 Ry
     xc contribution           =      -6.76137286 Ry
     ewald contribution        =      -6.58911752 Ry
     one-center paw contrib.   =       0.14397244 Ry

     convergence has been achieved in   5 iterations

     Forces acting on atoms (cartesian axes, Ry/au):

     atom    1 type  1   force =     0.00000475   -0.00103296    0.00048608
     atom    2 type  1   force =    -0.00000475    0.00103296   -0.00048608

     Total force =     0.001614     Total SCF correction =     0.000009


     Computing stress (Cartesian axis) and pressure

          total   stress  (Ry/bohr**3)                   (kbar)     P=      -79.08
  -0.00054060  -0.00000000   0.00000000          -79.53       -0.00        0.00
  -0.00000000  -0.00053290  -0.00000036           -0.00      -78.39       -0.05
   0.00000000  -0.00000036  -0.00053915            0.00       -0.05      -79.31


     Writing all to output data dir ./tmp/Li_config_36.save/ :
     XML data file, charge density, pseudopotentials, collected wavefunctions

     init_run     :      0.42s CPU      0.48s WALL (       1 calls)
     electrons    :      3.38s CPU      3.61s WALL (       1 calls)
     forces       :      0.06s CPU      0.07s WALL (       1 calls)
     stress       :      0.35s CPU      0.36s WALL (       1 calls)

     Called by init_run:
     wfcinit      :      0.23s CPU      0.24s WALL (       1 calls)
     potinit      :      0.08s CPU      0.11s WALL (       1 calls)
     hinit0       :      0.07s CPU      0.08s WALL (       1 calls)

     Called by electrons:
     c_bands      :      2.36s CPU      2.52s WALL (       6 calls)
     sum_band     :      0.59s CPU      0.63s WALL (       6 calls)
     v_of_rho     :      0.23s CPU      0.25s WALL (       6 calls)
     newd         :      0.12s CPU      0.14s WALL (       6 calls)
     PAW_pot      :      0.13s CPU      0.16s WALL (       6 calls)
     mix_rho      :      0.02s CPU      0.02s WALL (       6 calls)

     Called by c_bands:
     init_us_2    :      0.08s CPU      0.10s WALL (     540 calls)
     cegterg      :      2.28s CPU      2.43s WALL (     216 calls)

     Called by *egterg:
     cdiaghg      :      0.02s CPU      0.02s WALL (     733 calls)
     h_psi        :      2.11s CPU      2.17s WALL (     805 calls)
     s_psi        :      0.05s CPU      0.06s WALL (     805 calls)
     g_psi        :      0.01s CPU      0.01s WALL (     553 calls)

     Called by h_psi:
     h_psi:calbec :      0.07s CPU      0.09s WALL (     805 calls)
     vloc_psi     :      1.98s CPU      2.00s WALL (     805 calls)
     add_vuspsi   :      0.05s CPU      0.06s WALL (     805 calls)

     General routines
     calbec       :      0.11s CPU      0.15s WALL (    1201 calls)
     fft          :      0.13s CPU      0.13s WALL (      85 calls)
     ffts         :      0.01s CPU      0.01s WALL (      12 calls)
     fftw         :      1.84s CPU      1.85s WALL (    9930 calls)
     interpolate  :      0.02s CPU      0.02s WALL (       6 calls)

     Parallel routines

     PWSCF        :      4.25s CPU      4.57s WALL


   This run was terminated on:   9:13:51  28Jan2025            

=------------------------------------------------------------------------------=
   JOB DONE.
=------------------------------------------------------------------------------=
Note: The following floating-point exceptions are signalling: IEEE_INVALID_FLAG IEEE_DIVIDE_BY_ZERO IEEE_OVERFLOW_FLAG IEEE_UNDERFLOW_FLAG
