[Williams-MacBook-Air.local:93617] shmem: mmap: an error occurred while determining whether or not /var/folders/hy/k_vp1md94sz2dr40dtrs6ln80000gn/T//ompi.Williams-MacBook-Air.501/jf.0/1655701504/sm_segment.Williams-MacBook-Air.501.62b00000.0 could be created.

     Program PWSCF v.7.3.1 starts on 28Jan2025 at  9:11:32 

     This program is part of the open-source Quantum ESPRESSO suite
     for quantum simulation of materials; please cite
         "P. Giannozzi et al., J. Phys.:Condens. Matter 21 395502 (2009);
         "P. Giannozzi et al., J. Phys.:Condens. Matter 29 465901 (2017);
         "P. Giannozzi et al., J. Chem. Phys. 152 154105 (2020);
          URL http://www.quantum-espresso.org", 
     in publications or presentations arising from this work. More details at
     http://www.quantum-espresso.org/quote

     Parallel version (MPI), running on     1 processors

     MPI processes distributed on     1 nodes
     0 MiB available memory on the printing compute node when the environment starts

     Reading input from Li_config_13.in

     Current dimensions of program PWSCF are:
     Max number of different atomic species (ntypx) = 10
     Max number of k-points (npk) =  40000
     Max angular momentum in pseudopotentials (lmaxx) =  4

     Subspace diagonalization in iterative solution of the eigenvalue problem:
     a serial algorithm will be used


     G-vector sticks info
     --------------------
     sticks:   dense  smooth     PW     G-vecs:    dense   smooth      PW
     Sum        3093    1229    365               129043    32675    5257

     Using Slab Decomposition



     bravais-lattice index     =            1
     lattice parameter (alat)  =      11.3763  a.u.
     unit-cell volume          =    1472.3048 (a.u.)^3
     number of atoms/cell      =            2
     number of atomic types    =            1
     number of electrons       =         6.00
     number of Kohn-Sham states=            7
     kinetic-energy cutoff     =      30.0000  Ry
     charge density cutoff     =     300.0000  Ry
     scf convergence threshold =      1.0E-08
     mixing beta               =       0.7000
     number of iterations used =            8  plain     mixing
     Exchange-correlation= SLA  PW   PBX  PBC
                           (   1   4   3   4   0   0   0)

     celldm(1)=  11.376253  celldm(2)=   0.000000  celldm(3)=   0.000000
     celldm(4)=   0.000000  celldm(5)=   0.000000  celldm(6)=   0.000000

     crystal axes: (cart. coord. in units of alat)
               a(1) = (   1.000000   0.000000   0.000000 )  
               a(2) = (   0.000000   1.000000   0.000000 )  
               a(3) = (   0.000000   0.000000   1.000000 )  

     reciprocal axes: (cart. coord. in units 2 pi/alat)
               b(1) = (  1.000000  0.000000  0.000000 )  
               b(2) = (  0.000000  1.000000  0.000000 )  
               b(3) = (  0.000000  0.000000  1.000000 )  


     PseudoPot. # 1 for Li read from file:
     ../../pseudopotentials/Li.pbe-s-kjpaw_psl.1.0.0.UPF
     MD5 check sum: d3662511b3860c829f7212fdb89d6128
     Pseudo is Projector augmented-wave, Zval =  3.0
     Generated using &quot;atomic&quot; code by A. Dal Corso  v.6.3
     Shape of augmentation charge: PSQ
     Using radial grid of 1017 points,  4 beta functions with: 
                l(1) =   0
                l(2) =   0
                l(3) =   1
                l(4) =   1
     Q(r) pseudized with 0 coefficients 


     atomic species   valence    mass     pseudopotential
     Li                3.00     6.94000     Li( 1.00)

     No symmetry found



   Cartesian axes

     site n.     atom                  positions (alat units)
         1        Li     tau(   1) = (   0.8601480   0.9716510   0.9588390  )
         2        Li     tau(   2) = (   0.3586350   0.4797110   0.6493310  )

     number of k points=    36  Gaussian smearing, width (Ry)=  0.0100
                       cart. coord. in units 2pi/alat
        k(    1) = (   0.0000000   0.0000000   0.0000000), wk =   0.0312500
        k(    2) = (   0.0000000   0.0000000   0.2500000), wk =   0.0625000
        k(    3) = (   0.0000000   0.0000000  -0.5000000), wk =   0.0312500
        k(    4) = (   0.0000000   0.2500000   0.2500000), wk =   0.0625000
        k(    5) = (   0.0000000   0.2500000  -0.5000000), wk =   0.0625000
        k(    6) = (   0.0000000  -0.5000000  -0.5000000), wk =   0.0312500
        k(    7) = (   0.2500000   0.2500000   0.2500000), wk =   0.0625000
        k(    8) = (   0.2500000   0.2500000  -0.5000000), wk =   0.0625000
        k(    9) = (   0.2500000  -0.5000000  -0.5000000), wk =   0.0625000
        k(   10) = (  -0.5000000  -0.5000000  -0.5000000), wk =   0.0312500
        k(   11) = (   0.2500000   0.0000000   0.0000000), wk =   0.0625000
        k(   12) = (   0.0000000   0.2500000   0.0000000), wk =   0.0625000
        k(   13) = (  -0.5000000   0.0000000   0.0000000), wk =   0.0312500
        k(   14) = (   0.0000000  -0.5000000   0.0000000), wk =   0.0312500
        k(   15) = (   0.0000000  -0.2500000   0.2500000), wk =   0.0625000
        k(   16) = (   0.2500000   0.0000000  -0.2500000), wk =   0.0625000
        k(   17) = (  -0.2500000   0.0000000  -0.2500000), wk =   0.0625000
        k(   18) = (   0.2500000  -0.2500000   0.0000000), wk =   0.0625000
        k(   19) = (  -0.2500000  -0.2500000   0.0000000), wk =   0.0625000
        k(   20) = (   0.2500000   0.0000000   0.5000000), wk =   0.0625000
        k(   21) = (  -0.5000000  -0.2500000   0.0000000), wk =   0.0625000
        k(   22) = (   0.0000000  -0.5000000   0.2500000), wk =   0.0625000
        k(   23) = (   0.2500000  -0.5000000   0.0000000), wk =   0.0625000
        k(   24) = (  -0.5000000   0.0000000   0.2500000), wk =   0.0625000
        k(   25) = (  -0.5000000   0.0000000   0.5000000), wk =   0.0312500
        k(   26) = (  -0.5000000   0.5000000   0.0000000), wk =   0.0312500
        k(   27) = (  -0.2500000  -0.2500000   0.2500000), wk =   0.0625000
        k(   28) = (  -0.2500000   0.2500000  -0.2500000), wk =   0.0625000
        k(   29) = (   0.2500000  -0.2500000  -0.2500000), wk =   0.0625000
        k(   30) = (  -0.2500000   0.2500000   0.5000000), wk =   0.0625000
        k(   31) = (  -0.5000000  -0.2500000   0.2500000), wk =   0.0625000
        k(   32) = (   0.5000000  -0.2500000  -0.2500000), wk =   0.0625000
        k(   33) = (  -0.2500000  -0.5000000   0.2500000), wk =   0.0625000
        k(   34) = (  -0.2500000   0.5000000  -0.2500000), wk =   0.0625000
        k(   35) = (  -0.5000000   0.2500000   0.5000000), wk =   0.0625000
        k(   36) = (  -0.5000000   0.5000000   0.2500000), wk =   0.0625000

     Dense  grid:   129043 G-vectors     FFT dimensions: (  64,  64,  64)

     Smooth grid:    32675 G-vectors     FFT dimensions: (  40,  40,  40)

     Estimated max dynamical RAM per process >     186.91 MB

     Initial potential from superposition of free atoms

     starting charge       5.9908, renormalised to       6.0000
     Starting wfcs are   10 randomized atomic wfcs
     Checking if some PAW data can be deallocated... 

     total cpu time spent up to now is        0.6 secs

     Self-consistent Calculation

     iteration #  1     ecut=    30.00 Ry     beta= 0.70
     Davidson diagonalization with overlap
     ethr =  1.00E-02,  avg # of iterations =  2.0

     Threshold (ethr) on eigenvalues was too large:
     Diagonalizing with lowered threshold

     Davidson diagonalization with overlap
     ethr =  3.00E-04,  avg # of iterations =  1.2

     total cpu time spent up to now is        2.1 secs

     total energy              =     -29.77592510 Ry
     estimated scf accuracy    <       0.01877437 Ry

     iteration #  2     ecut=    30.00 Ry     beta= 0.70
     Davidson diagonalization with overlap
     ethr =  3.13E-04,  avg # of iterations =  1.0

     total cpu time spent up to now is        2.7 secs

     total energy              =     -29.77682258 Ry
     estimated scf accuracy    <       0.00118555 Ry

     iteration #  3     ecut=    30.00 Ry     beta= 0.70
     Davidson diagonalization with overlap
     ethr =  1.98E-05,  avg # of iterations =  2.0

     total cpu time spent up to now is        3.5 secs

     total energy              =     -29.77700259 Ry
     estimated scf accuracy    <       0.00002170 Ry

     iteration #  4     ecut=    30.00 Ry     beta= 0.70
     Davidson diagonalization with overlap
     ethr =  3.62E-07,  avg # of iterations =  4.7

     total cpu time spent up to now is        4.6 secs

     total energy              =     -29.77701639 Ry
     estimated scf accuracy    <       0.00000052 Ry

     iteration #  5     ecut=    30.00 Ry     beta= 0.70
     Davidson diagonalization with overlap
     ethr =  8.74E-09,  avg # of iterations =  2.3

     total cpu time spent up to now is        5.3 secs

     total energy              =     -29.77701693 Ry
     estimated scf accuracy    <       0.00000001 Ry

     iteration #  6     ecut=    30.00 Ry     beta= 0.70
     Davidson diagonalization with overlap
     ethr =  1.67E-10,  avg # of iterations =  3.0

     total cpu time spent up to now is        6.1 secs

     End of self-consistent calculation

          k = 0.0000 0.0000 0.0000 (  4067 PWs)   bands (ev):

   -51.7317 -51.7223  -3.1620   0.0747   0.0754   0.3099   0.4571

          k = 0.0000 0.0000 0.2500 (  4072 PWs)   bands (ev):

   -51.7387 -51.7200  -2.9461  -0.9661   0.2480   0.2488   0.7934

          k = 0.0000 0.0000-0.5000 (  4116 PWs)   bands (ev):

   -51.7448 -51.7419  -2.5189  -1.8362   0.5073   0.5080   1.2336

          k = 0.0000 0.2500 0.2500 (  4080 PWs)   bands (ev):

   -51.7360 -51.7274  -2.7140  -0.9112  -0.7250   0.4745   0.8510

          k = 0.0000 0.2500-0.5000 (  4094 PWs)   bands (ev):

   -51.7363 -51.7349  -2.2924  -1.5972  -0.5355   0.2265   0.7207

          k = 0.0000-0.5000-0.5000 (  4076 PWs)   bands (ev):

   -51.7301 -51.7296  -1.6347  -1.6047  -0.9048  -0.8737   1.2623

          k = 0.2500 0.2500 0.2500 (  4094 PWs)   bands (ev):

   -51.7391 -51.7319  -2.4823  -0.7303  -0.6436  -0.4795   0.8031

          k = 0.2500 0.2500-0.5000 (  4076 PWs)   bands (ev):

   -51.7311 -51.7274  -2.0661  -1.3611  -0.3210  -0.3062   0.2221

          k = 0.2500-0.5000-0.5000 (  4092 PWs)   bands (ev):

   -51.7355 -51.7340  -1.4121  -1.3815  -0.6808  -0.6513   0.3160

          k =-0.5000-0.5000-0.5000 (  4032 PWs)   bands (ev):

   -51.7151 -51.7149  -0.7756  -0.7728  -0.7101  -0.7074  -0.1442

          k = 0.2500 0.0000 0.0000 (  4072 PWs)   bands (ev):

   -51.7333 -51.7253  -2.9292  -1.1036   0.3077   0.6052   0.6410

          k = 0.0000 0.2500 0.0000 (  4072 PWs)   bands (ev):

   -51.7334 -51.7253  -2.9292  -1.1033   0.3070   0.6052   0.6410

          k =-0.5000 0.0000 0.0000 (  4116 PWs)   bands (ev):

   -51.7442 -51.7426  -2.2365  -2.2310   0.8903   0.8922   0.9822

          k = 0.0000-0.5000 0.0000 (  4116 PWs)   bands (ev):

   -51.7476 -51.7392  -2.2483  -2.2191   0.8876   0.8979   0.9534

          k = 0.0000-0.2500 0.2500 (  4080 PWs)   bands (ev):

   -51.7361 -51.7273  -2.7139  -0.9111  -0.7272   0.4737   0.8659

          k = 0.2500 0.0000-0.2500 (  4080 PWs)   bands (ev):

   -51.7358 -51.7276  -2.7139  -0.9114  -0.7259   0.4749   0.8569

          k =-0.2500 0.0000-0.2500 (  4080 PWs)   bands (ev):

   -51.7359 -51.7275  -2.7139  -0.9114  -0.7263   0.4748   0.8598

          k = 0.2500-0.2500 0.0000 (  4080 PWs)   bands (ev):

   -51.7338 -51.7295  -2.6960  -0.9059  -0.8418   0.7285   0.8980

          k =-0.2500-0.2500 0.0000 (  4080 PWs)   bands (ev):

   -51.7335 -51.7299  -2.6960  -0.9059  -0.8419   0.7288   0.8978

          k = 0.2500 0.0000 0.5000 (  4094 PWs)   bands (ev):

   -51.7362 -51.7350  -2.2924  -1.5972  -0.5358   0.2262   0.7216

          k =-0.5000-0.2500 0.0000 (  4094 PWs)   bands (ev):

   -51.7358 -51.7354  -2.0044  -1.9988  -0.2066  -0.2003   1.1557

          k = 0.0000-0.5000 0.2500 (  4094 PWs)   bands (ev):

   -51.7375 -51.7337  -2.0371  -2.0077  -0.0927  -0.0618   1.0876

          k = 0.2500-0.5000 0.0000 (  4094 PWs)   bands (ev):

   -51.7369 -51.7343  -2.0162  -1.9867  -0.2205  -0.1867   1.1568

          k =-0.5000 0.0000 0.2500 (  4094 PWs)   bands (ev):

   -51.7359 -51.7353  -2.0252  -2.0197  -0.0803  -0.0745   1.1138

          k =-0.5000 0.0000 0.5000 (  4076 PWs)   bands (ev):

   -51.7299 -51.7298  -1.6227  -1.6171  -0.8923  -0.8864   1.2802

          k =-0.5000 0.5000 0.0000 (  4076 PWs)   bands (ev):

   -51.7299 -51.7297  -1.3312  -1.3254  -1.2991  -1.2933   1.4112

          k =-0.2500-0.2500 0.2500 (  4094 PWs)   bands (ev):

   -51.7377 -51.7333  -2.4821  -0.7302  -0.6436  -0.4814   0.8105

          k =-0.2500 0.2500-0.2500 (  4094 PWs)   bands (ev):

   -51.7376 -51.7334  -2.4821  -0.7302  -0.6435  -0.4819   0.8122

          k = 0.2500-0.2500-0.2500 (  4094 PWs)   bands (ev):

   -51.7396 -51.7314  -2.4824  -0.7303  -0.6435  -0.4791   0.8012

          k =-0.2500 0.2500 0.5000 (  4076 PWs)   bands (ev):

   -51.7311 -51.7274  -2.0661  -1.3611  -0.3209  -0.3063   0.2220

          k =-0.5000-0.2500 0.2500 (  4076 PWs)   bands (ev):

   -51.7294 -51.7291  -1.7949  -1.7892  -0.0825  -0.0789   0.2391

          k = 0.5000-0.2500-0.2500 (  4076 PWs)   bands (ev):

   -51.7295 -51.7291  -1.7950  -1.7894  -0.0795  -0.0757   0.2372

          k =-0.2500-0.5000 0.2500 (  4076 PWs)   bands (ev):

   -51.7303 -51.7283  -1.8070  -1.7770  -0.0891  -0.0694   0.2216

          k =-0.2500 0.5000-0.2500 (  4076 PWs)   bands (ev):

   -51.7302 -51.7283  -1.8069  -1.7770  -0.0896  -0.0701   0.2225

          k =-0.5000 0.2500 0.5000 (  4092 PWs)   bands (ev):

   -51.7349 -51.7346  -1.3998  -1.3941  -0.6690  -0.6634   0.3323

          k =-0.5000 0.5000 0.2500 (  4092 PWs)   bands (ev):

   -51.7349 -51.7346  -1.1305  -1.1250  -1.0972  -1.0916   0.6160

     the Fermi energy is    -1.8009 ev

!    total energy              =     -29.77701696 Ry
     total all-electron energy =       -29.777040 Ry
     estimated scf accuracy    <          6.3E-10 Ry
     smearing contrib. (-TS)   =      -0.00171757 Ry
     internal energy E=F+TS    =     -29.77529939 Ry

     The total energy is F=E-TS. E is the sum of the following terms:
     one-electron contribution =     -27.68873900 Ry
     hartree contribution      =      10.13733919 Ry
     xc contribution           =      -6.71779299 Ry
     ewald contribution        =      -5.65018168 Ry
     one-center paw contrib.   =       0.14407509 Ry

     convergence has been achieved in   6 iterations

     Forces acting on atoms (cartesian axes, Ry/au):

     atom    1 type  1   force =     0.00006405   -0.00035551   -0.00500928
     atom    2 type  1   force =    -0.00006405    0.00035551    0.00500928

     Total force =     0.007103     Total SCF correction =     0.000004


     Computing stress (Cartesian axis) and pressure

          total   stress  (Ry/bohr**3)                   (kbar)     P=      -51.17
  -0.00035502   0.00000001   0.00000007          -52.22        0.00        0.01
   0.00000001  -0.00035496  -0.00000039            0.00      -52.22       -0.06
   0.00000007  -0.00000039  -0.00033348            0.01       -0.06      -49.06


     Writing all to output data dir ./tmp/Li_config_13.save/ :
     XML data file, charge density, pseudopotentials, collected wavefunctions

     init_run     :      0.54s CPU      0.57s WALL (       1 calls)
     electrons    :      5.24s CPU      5.55s WALL (       1 calls)
     forces       :      0.10s CPU      0.11s WALL (       1 calls)
     stress       :      0.52s CPU      0.55s WALL (       1 calls)

     Called by init_run:
     wfcinit      :      0.32s CPU      0.33s WALL (       1 calls)
     potinit      :      0.09s CPU      0.10s WALL (       1 calls)
     hinit0       :      0.07s CPU      0.08s WALL (       1 calls)

     Called by electrons:
     c_bands      :      3.61s CPU      3.81s WALL (       7 calls)
     sum_band     :      0.94s CPU      0.99s WALL (       7 calls)
     v_of_rho     :      0.37s CPU      0.39s WALL (       7 calls)
     newd         :      0.22s CPU      0.25s WALL (       7 calls)
     PAW_pot      :      0.15s CPU      0.15s WALL (       7 calls)
     mix_rho      :      0.03s CPU      0.04s WALL (       7 calls)

     Called by c_bands:
     init_us_2    :      0.14s CPU      0.15s WALL (     612 calls)
     cegterg      :      3.47s CPU      3.66s WALL (     252 calls)

     Called by *egterg:
     cdiaghg      :      0.02s CPU      0.02s WALL (     803 calls)
     h_psi        :      3.16s CPU      3.24s WALL (     875 calls)
     s_psi        :      0.10s CPU      0.12s WALL (     875 calls)
     g_psi        :      0.01s CPU      0.01s WALL (     587 calls)

     Called by h_psi:
     h_psi:calbec :      0.12s CPU      0.16s WALL (     875 calls)
     vloc_psi     :      2.92s CPU      2.94s WALL (     875 calls)
     add_vuspsi   :      0.10s CPU      0.12s WALL (     875 calls)

     General routines
     calbec       :      0.20s CPU      0.24s WALL (    1307 calls)
     fft          :      0.24s CPU      0.25s WALL (      98 calls)
     ffts         :      0.01s CPU      0.01s WALL (      14 calls)
     fftw         :      2.76s CPU      2.78s WALL (   11232 calls)
     interpolate  :      0.02s CPU      0.03s WALL (       7 calls)

     Parallel routines

     PWSCF        :      6.44s CPU      6.83s WALL


   This run was terminated on:   9:11:39  28Jan2025            

=------------------------------------------------------------------------------=
   JOB DONE.
=------------------------------------------------------------------------------=
Note: The following floating-point exceptions are signalling: IEEE_INVALID_FLAG IEEE_DIVIDE_BY_ZERO IEEE_OVERFLOW_FLAG IEEE_UNDERFLOW_FLAG
