[Williams-MacBook-Air.local:93755] shmem: mmap: an error occurred while determining whether or not /var/folders/hy/k_vp1md94sz2dr40dtrs6ln80000gn/T//ompi.Williams-MacBook-Air.501/jf.0/428670976/sm_segment.Williams-MacBook-Air.501.198d0000.0 could be created.

     Program PWSCF v.7.3.1 starts on 28Jan2025 at  9:13:38 

     This program is part of the open-source Quantum ESPRESSO suite
     for quantum simulation of materials; please cite
         "P. Giannozzi et al., J. Phys.:Condens. Matter 21 395502 (2009);
         "P. Giannozzi et al., J. Phys.:Condens. Matter 29 465901 (2017);
         "P. Giannozzi et al., J. Chem. Phys. 152 154105 (2020);
          URL http://www.quantum-espresso.org", 
     in publications or presentations arising from this work. More details at
     http://www.quantum-espresso.org/quote

     Parallel version (MPI), running on     1 processors

     MPI processes distributed on     1 nodes
     0 MiB available memory on the printing compute node when the environment starts

     Reading input from Li_config_34.in

     Current dimensions of program PWSCF are:
     Max number of different atomic species (ntypx) = 10
     Max number of k-points (npk) =  40000
     Max angular momentum in pseudopotentials (lmaxx) =  4

     Subspace diagonalization in iterative solution of the eigenvalue problem:
     a serial algorithm will be used


     G-vector sticks info
     --------------------
     sticks:   dense  smooth     PW     G-vecs:    dense   smooth      PW
     Sum        2201     877    261                77053    19549    3239

     Using Slab Decomposition



     bravais-lattice index     =            1
     lattice parameter (alat)  =       9.5794  a.u.
     unit-cell volume          =     879.0563 (a.u.)^3
     number of atoms/cell      =            2
     number of atomic types    =            1
     number of electrons       =         6.00
     number of Kohn-Sham states=            7
     kinetic-energy cutoff     =      30.0000  Ry
     charge density cutoff     =     300.0000  Ry
     scf convergence threshold =      1.0E-08
     mixing beta               =       0.7000
     number of iterations used =            8  plain     mixing
     Exchange-correlation= SLA  PW   PBX  PBC
                           (   1   4   3   4   0   0   0)

     celldm(1)=   9.579413  celldm(2)=   0.000000  celldm(3)=   0.000000
     celldm(4)=   0.000000  celldm(5)=   0.000000  celldm(6)=   0.000000

     crystal axes: (cart. coord. in units of alat)
               a(1) = (   1.000000   0.000000   0.000000 )  
               a(2) = (   0.000000   1.000000   0.000000 )  
               a(3) = (   0.000000   0.000000   1.000000 )  

     reciprocal axes: (cart. coord. in units 2 pi/alat)
               b(1) = (  1.000000  0.000000  0.000000 )  
               b(2) = (  0.000000  1.000000  0.000000 )  
               b(3) = (  0.000000  0.000000  1.000000 )  


     PseudoPot. # 1 for Li read from file:
     ../../pseudopotentials/Li.pbe-s-kjpaw_psl.1.0.0.UPF
     MD5 check sum: d3662511b3860c829f7212fdb89d6128
     Pseudo is Projector augmented-wave, Zval =  3.0
     Generated using &quot;atomic&quot; code by A. Dal Corso  v.6.3
     Shape of augmentation charge: PSQ
     Using radial grid of 1017 points,  4 beta functions with: 
                l(1) =   0
                l(2) =   0
                l(3) =   1
                l(4) =   1
     Q(r) pseudized with 0 coefficients 


     atomic species   valence    mass     pseudopotential
     Li                3.00     6.94000     Li( 1.00)

     No symmetry found



   Cartesian axes

     site n.     atom                  positions (alat units)
         1        Li     tau(   1) = (   0.1128030   0.9548560   0.0630740  )
         2        Li     tau(   2) = (   0.3606990   0.6458570   0.6114970  )

     number of k points=    36  Gaussian smearing, width (Ry)=  0.0100
                       cart. coord. in units 2pi/alat
        k(    1) = (   0.0000000   0.0000000   0.0000000), wk =   0.0312500
        k(    2) = (   0.0000000   0.0000000   0.2500000), wk =   0.0625000
        k(    3) = (   0.0000000   0.0000000  -0.5000000), wk =   0.0312500
        k(    4) = (   0.0000000   0.2500000   0.2500000), wk =   0.0625000
        k(    5) = (   0.0000000   0.2500000  -0.5000000), wk =   0.0625000
        k(    6) = (   0.0000000  -0.5000000  -0.5000000), wk =   0.0312500
        k(    7) = (   0.2500000   0.2500000   0.2500000), wk =   0.0625000
        k(    8) = (   0.2500000   0.2500000  -0.5000000), wk =   0.0625000
        k(    9) = (   0.2500000  -0.5000000  -0.5000000), wk =   0.0625000
        k(   10) = (  -0.5000000  -0.5000000  -0.5000000), wk =   0.0312500
        k(   11) = (   0.2500000   0.0000000   0.0000000), wk =   0.0625000
        k(   12) = (   0.0000000   0.2500000   0.0000000), wk =   0.0625000
        k(   13) = (  -0.5000000   0.0000000   0.0000000), wk =   0.0312500
        k(   14) = (   0.0000000  -0.5000000   0.0000000), wk =   0.0312500
        k(   15) = (   0.0000000  -0.2500000   0.2500000), wk =   0.0625000
        k(   16) = (   0.2500000   0.0000000  -0.2500000), wk =   0.0625000
        k(   17) = (  -0.2500000   0.0000000  -0.2500000), wk =   0.0625000
        k(   18) = (   0.2500000  -0.2500000   0.0000000), wk =   0.0625000
        k(   19) = (  -0.2500000  -0.2500000   0.0000000), wk =   0.0625000
        k(   20) = (   0.2500000   0.0000000   0.5000000), wk =   0.0625000
        k(   21) = (  -0.5000000  -0.2500000   0.0000000), wk =   0.0625000
        k(   22) = (   0.0000000  -0.5000000   0.2500000), wk =   0.0625000
        k(   23) = (   0.2500000  -0.5000000   0.0000000), wk =   0.0625000
        k(   24) = (  -0.5000000   0.0000000   0.2500000), wk =   0.0625000
        k(   25) = (  -0.5000000   0.0000000   0.5000000), wk =   0.0312500
        k(   26) = (  -0.5000000   0.5000000   0.0000000), wk =   0.0312500
        k(   27) = (  -0.2500000  -0.2500000   0.2500000), wk =   0.0625000
        k(   28) = (  -0.2500000   0.2500000  -0.2500000), wk =   0.0625000
        k(   29) = (   0.2500000  -0.2500000  -0.2500000), wk =   0.0625000
        k(   30) = (  -0.2500000   0.2500000   0.5000000), wk =   0.0625000
        k(   31) = (  -0.5000000  -0.2500000   0.2500000), wk =   0.0625000
        k(   32) = (   0.5000000  -0.2500000  -0.2500000), wk =   0.0625000
        k(   33) = (  -0.2500000  -0.5000000   0.2500000), wk =   0.0625000
        k(   34) = (  -0.2500000   0.5000000  -0.2500000), wk =   0.0625000
        k(   35) = (  -0.5000000   0.2500000   0.5000000), wk =   0.0625000
        k(   36) = (  -0.5000000   0.5000000   0.2500000), wk =   0.0625000

     Dense  grid:    77053 G-vectors     FFT dimensions: (  54,  54,  54)

     Smooth grid:    19549 G-vectors     FFT dimensions: (  36,  36,  36)

     Estimated max dynamical RAM per process >     111.83 MB

     Initial potential from superposition of free atoms

     starting charge       5.9908, renormalised to       6.0000
     Starting wfcs are   10 randomized atomic wfcs
     Checking if some PAW data can be deallocated... 

     total cpu time spent up to now is        0.4 secs

     Self-consistent Calculation

     iteration #  1     ecut=    30.00 Ry     beta= 0.70
     Davidson diagonalization with overlap
     ethr =  1.00E-02,  avg # of iterations =  2.0

     Threshold (ethr) on eigenvalues was too large:
     Diagonalizing with lowered threshold

     Davidson diagonalization with overlap
     ethr =  2.98E-04,  avg # of iterations =  1.9

     total cpu time spent up to now is        1.4 secs

     total energy              =     -29.83385701 Ry
     estimated scf accuracy    <       0.01897779 Ry

     iteration #  2     ecut=    30.00 Ry     beta= 0.70
     Davidson diagonalization with overlap
     ethr =  3.16E-04,  avg # of iterations =  1.0

     total cpu time spent up to now is        1.9 secs

     total energy              =     -29.83455990 Ry
     estimated scf accuracy    <       0.00089457 Ry

     iteration #  3     ecut=    30.00 Ry     beta= 0.70
     Davidson diagonalization with overlap
     ethr =  1.49E-05,  avg # of iterations =  3.9

     total cpu time spent up to now is        2.5 secs

     total energy              =     -29.83466534 Ry
     estimated scf accuracy    <       0.00001198 Ry

     iteration #  4     ecut=    30.00 Ry     beta= 0.70
     Davidson diagonalization with overlap
     ethr =  2.00E-07,  avg # of iterations =  4.0

     total cpu time spent up to now is        3.1 secs

     total energy              =     -29.83466962 Ry
     estimated scf accuracy    <       0.00000081 Ry

     iteration #  5     ecut=    30.00 Ry     beta= 0.70
     Davidson diagonalization with overlap
     ethr =  1.35E-08,  avg # of iterations =  2.0

     total cpu time spent up to now is        3.6 secs

     End of self-consistent calculation

          k = 0.0000 0.0000 0.0000 (  2469 PWs)   bands (ev):

   -50.4372 -50.4312  -3.2634   0.8974   1.4601   1.7706   1.9183

          k = 0.0000 0.0000 0.2500 (  2441 PWs)   bands (ev):

   -50.4223 -50.4162  -2.9514  -0.5261   1.6687   2.0522   2.1878

          k = 0.0000 0.0000-0.5000 (  2416 PWs)   bands (ev):

   -50.4113 -50.4017  -2.0914  -1.9548   2.0184   2.2401   2.6556

          k = 0.0000 0.2500 0.2500 (  2452 PWs)   bands (ev):

   -50.4302 -50.4195  -2.6473  -0.3665   0.1261   1.9884   2.3157

          k = 0.0000 0.2500-0.5000 (  2444 PWs)   bands (ev):

   -50.4236 -50.4181  -1.8065  -1.6623   0.7977   1.0429   2.6815

          k = 0.0000-0.5000-0.5000 (  2464 PWs)   bands (ev):

   -50.4368 -50.4281  -1.2379  -1.1181  -0.3026  -0.1022   3.0061

          k = 0.2500 0.2500 0.2500 (  2455 PWs)   bands (ev):

   -50.4324 -50.4219  -2.3420  -0.1195   0.1177   0.5897   2.6891

          k = 0.2500 0.2500-0.5000 (  2422 PWs)   bands (ev):

   -50.4153 -50.4059  -1.5175  -1.3672   0.7454   0.9332   1.7399

          k = 0.2500-0.5000-0.5000 (  2424 PWs)   bands (ev):

   -50.4175 -50.4078  -0.9800  -0.8491  -0.0312   0.1800   1.7952

          k =-0.5000-0.5000-0.5000 (  2440 PWs)   bands (ev):

   -50.4284 -50.4164  -0.5517  -0.4199   0.3671   0.7265   0.9464

          k = 0.2500 0.0000 0.0000 (  2441 PWs)   bands (ev):

   -50.4206 -50.4179  -2.9537  -0.3086   1.1278   1.7307   2.3095

          k = 0.0000 0.2500 0.0000 (  2441 PWs)   bands (ev):

   -50.4223 -50.4162  -2.9520  -0.3675   1.1604   2.0388   2.0667

          k =-0.5000 0.0000 0.0000 (  2416 PWs)   bands (ev):

   -50.4077 -50.4053  -2.2768  -1.6089   1.4384   2.0468   2.6714

          k = 0.0000-0.5000 0.0000 (  2416 PWs)   bands (ev):

   -50.4085 -50.4045  -2.2310  -1.7039   1.5408   2.3456   2.4222

          k = 0.0000-0.2500 0.2500 (  2452 PWs)   bands (ev):

   -50.4346 -50.4150  -2.6451  -0.3975   0.1283   2.1051   2.3090

          k = 0.2500 0.0000-0.2500 (  2452 PWs)   bands (ev):

   -50.4270 -50.4226  -2.6491  -0.3319   0.1249   1.8855   2.3214

          k =-0.2500 0.0000-0.2500 (  2452 PWs)   bands (ev):

   -50.4298 -50.4198  -2.6464  -0.3528   0.1218   1.9391   2.3824

          k = 0.2500-0.2500 0.0000 (  2452 PWs)   bands (ev):

   -50.4265 -50.4232  -2.6505  -0.1936   0.1392   1.3865   2.3893

          k =-0.2500-0.2500 0.0000 (  2452 PWs)   bands (ev):

   -50.4283 -50.4212  -2.6457  -0.1893   0.0858   1.3819   2.6477

          k = 0.2500 0.0000 0.5000 (  2444 PWs)   bands (ev):

   -50.4253 -50.4163  -1.8067  -1.6645   0.8460   1.0923   2.5215

          k =-0.5000-0.2500 0.0000 (  2444 PWs)   bands (ev):

   -50.4240 -50.4177  -1.9917  -1.2947   0.4519   1.5561   1.7275

          k = 0.0000-0.5000 0.2500 (  2444 PWs)   bands (ev):

   -50.4217 -50.4199  -1.9526  -1.3913   0.3717   1.3302   2.6689

          k = 0.2500-0.5000 0.0000 (  2444 PWs)   bands (ev):

   -50.4235 -50.4182  -1.9451  -1.4025   0.5873   1.4946   1.7783

          k =-0.5000 0.0000 0.2500 (  2444 PWs)   bands (ev):

   -50.4282 -50.4135  -1.9980  -1.2842   0.2751   1.4501   2.3945

          k =-0.5000 0.0000 0.5000 (  2464 PWs)   bands (ev):

   -50.4376 -50.4274  -1.2557  -1.1315  -0.2593  -0.0265   2.7869

          k =-0.5000 0.5000 0.0000 (  2464 PWs)   bands (ev):

   -50.4348 -50.4301  -1.3412  -0.9061  -0.5251   0.3382   2.0250

          k =-0.2500-0.2500 0.2500 (  2455 PWs)   bands (ev):

   -50.4287 -50.4257  -2.3420  -0.1401   0.1330   0.5921   2.6780

          k =-0.2500 0.2500-0.2500 (  2455 PWs)   bands (ev):

   -50.4305 -50.4238  -2.3467  -0.1611   0.1673   0.6259   2.4966

          k = 0.2500-0.2500-0.2500 (  2455 PWs)   bands (ev):

   -50.4306 -50.4236  -2.3534  -0.1143   0.1640   0.6409   2.2797

          k =-0.2500 0.2500 0.5000 (  2422 PWs)   bands (ev):

   -50.4168 -50.4043  -1.5325  -1.3834   1.0211   1.2088   1.4094

          k =-0.5000-0.2500 0.2500 (  2422 PWs)   bands (ev):

   -50.4156 -50.4056  -1.7130  -0.9658   0.2754   1.0350   1.7147

          k = 0.5000-0.2500-0.2500 (  2422 PWs)   bands (ev):

   -50.4184 -50.4028  -1.7186  -0.9704   0.3363   1.0326   1.6502

          k =-0.2500-0.5000 0.2500 (  2422 PWs)   bands (ev):

   -50.4125 -50.4086  -1.6733  -1.0942   0.4853   1.0373   1.6510

          k =-0.2500 0.5000-0.2500 (  2422 PWs)   bands (ev):

   -50.4135 -50.4077  -1.6671  -1.0884   0.4200   1.0273   1.7337

          k =-0.5000 0.2500 0.5000 (  2424 PWs)   bands (ev):

   -50.4237 -50.4017  -0.9985  -0.8608   0.0183   0.2681   1.6660

          k =-0.5000 0.5000 0.2500 (  2424 PWs)   bands (ev):

   -50.4172 -50.4080  -1.1025  -0.5755  -0.2989   0.6672   1.2191

     the Fermi energy is    -1.4185 ev

!    total energy              =     -29.83467006 Ry
     total all-electron energy =       -29.834693 Ry
     estimated scf accuracy    <          7.4E-09 Ry
     smearing contrib. (-TS)   =      -0.00114174 Ry
     internal energy E=F+TS    =     -29.83352832 Ry

     The total energy is F=E-TS. E is the sum of the following terms:
     one-electron contribution =     -26.61602998 Ry
     hartree contribution      =       9.86756301 Ry
     xc contribution           =      -6.81161844 Ry
     ewald contribution        =      -6.41803621 Ry
     one-center paw contrib.   =       0.14459330 Ry

     convergence has been achieved in   5 iterations

     Forces acting on atoms (cartesian axes, Ry/au):

     atom    1 type  1   force =    -0.00506134    0.00621771    0.00396920
     atom    2 type  1   force =     0.00506134   -0.00621771   -0.00396920

     Total force =     0.012652     Total SCF correction =     0.000053


     Computing stress (Cartesian axis) and pressure

          total   stress  (Ry/bohr**3)                   (kbar)     P=      -79.60
  -0.00053918  -0.00002142  -0.00001183          -79.32       -3.15       -1.74
  -0.00002142  -0.00054449   0.00001368           -3.15      -80.10        2.01
  -0.00001183   0.00001368  -0.00053957           -1.74        2.01      -79.37


     Writing all to output data dir ./tmp/Li_config_34.save/ :
     XML data file, charge density, pseudopotentials, collected wavefunctions

     init_run     :      0.38s CPU      0.40s WALL (       1 calls)
     electrons    :      3.07s CPU      3.20s WALL (       1 calls)
     forces       :      0.06s CPU      0.07s WALL (       1 calls)
     stress       :      0.31s CPU      0.32s WALL (       1 calls)

     Called by init_run:
     wfcinit      :      0.22s CPU      0.23s WALL (       1 calls)
     potinit      :      0.06s CPU      0.06s WALL (       1 calls)
     hinit0       :      0.07s CPU      0.07s WALL (       1 calls)

     Called by electrons:
     c_bands      :      2.17s CPU      2.26s WALL (       6 calls)
     sum_band     :      0.54s CPU      0.56s WALL (       6 calls)
     v_of_rho     :      0.16s CPU      0.17s WALL (       6 calls)
     newd         :      0.11s CPU      0.12s WALL (       6 calls)
     PAW_pot      :      0.13s CPU      0.13s WALL (       6 calls)
     mix_rho      :      0.01s CPU      0.01s WALL (       6 calls)

     Called by c_bands:
     init_us_2    :      0.08s CPU      0.08s WALL (     540 calls)
     cegterg      :      2.10s CPU      2.18s WALL (     216 calls)

     Called by *egterg:
     cdiaghg      :      0.02s CPU      0.02s WALL (     712 calls)
     h_psi        :      1.96s CPU      2.00s WALL (     784 calls)
     s_psi        :      0.05s CPU      0.06s WALL (     784 calls)
     g_psi        :      0.01s CPU      0.01s WALL (     532 calls)

     Called by h_psi:
     h_psi:calbec :      0.07s CPU      0.08s WALL (     784 calls)
     vloc_psi     :      1.84s CPU      1.85s WALL (     784 calls)
     add_vuspsi   :      0.05s CPU      0.06s WALL (     784 calls)

     General routines
     calbec       :      0.11s CPU      0.13s WALL (    1180 calls)
     fft          :      0.08s CPU      0.08s WALL (      85 calls)
     ffts         :      0.01s CPU      0.01s WALL (      12 calls)
     fftw         :      1.78s CPU      1.79s WALL (    9756 calls)
     interpolate  :      0.01s CPU      0.01s WALL (       6 calls)

     Parallel routines

     PWSCF        :      3.85s CPU      4.04s WALL


   This run was terminated on:   9:13:42  28Jan2025            

=------------------------------------------------------------------------------=
   JOB DONE.
=------------------------------------------------------------------------------=
Note: The following floating-point exceptions are signalling: IEEE_INVALID_FLAG IEEE_DIVIDE_BY_ZERO IEEE_OVERFLOW_FLAG IEEE_UNDERFLOW_FLAG
