[Williams-MacBook-Air.local:93636] shmem: mmap: an error occurred while determining whether or not /var/folders/hy/k_vp1md94sz2dr40dtrs6ln80000gn/T//ompi.Williams-MacBook-Air.501/jf.0/1247215616/sm_segment.Williams-MacBook-Air.501.4a570000.0 could be created.

     Program PWSCF v.7.3.1 starts on 28Jan2025 at  9:11:52 

     This program is part of the open-source Quantum ESPRESSO suite
     for quantum simulation of materials; please cite
         "P. Giannozzi et al., J. Phys.:Condens. Matter 21 395502 (2009);
         "P. Giannozzi et al., J. Phys.:Condens. Matter 29 465901 (2017);
         "P. Giannozzi et al., J. Chem. Phys. 152 154105 (2020);
          URL http://www.quantum-espresso.org", 
     in publications or presentations arising from this work. More details at
     http://www.quantum-espresso.org/quote

     Parallel version (MPI), running on     1 processors

     MPI processes distributed on     1 nodes
     0 MiB available memory on the printing compute node when the environment starts

     Reading input from Li_config_17.in

     Current dimensions of program PWSCF are:
     Max number of different atomic species (ntypx) = 10
     Max number of k-points (npk) =  40000
     Max angular momentum in pseudopotentials (lmaxx) =  4

     Subspace diagonalization in iterative solution of the eigenvalue problem:
     a serial algorithm will be used


     G-vector sticks info
     --------------------
     sticks:   dense  smooth     PW     G-vecs:    dense   smooth      PW
     Sum        2709    1085    325               105399    26745    4385

     Using Slab Decomposition



     bravais-lattice index     =            1
     lattice parameter (alat)  =      10.6238  a.u.
     unit-cell volume          =    1199.0508 (a.u.)^3
     number of atoms/cell      =            2
     number of atomic types    =            1
     number of electrons       =         6.00
     number of Kohn-Sham states=            7
     kinetic-energy cutoff     =      30.0000  Ry
     charge density cutoff     =     300.0000  Ry
     scf convergence threshold =      1.0E-08
     mixing beta               =       0.7000
     number of iterations used =            8  plain     mixing
     Exchange-correlation= SLA  PW   PBX  PBC
                           (   1   4   3   4   0   0   0)

     celldm(1)=  10.623783  celldm(2)=   0.000000  celldm(3)=   0.000000
     celldm(4)=   0.000000  celldm(5)=   0.000000  celldm(6)=   0.000000

     crystal axes: (cart. coord. in units of alat)
               a(1) = (   1.000000   0.000000   0.000000 )  
               a(2) = (   0.000000   1.000000   0.000000 )  
               a(3) = (   0.000000   0.000000   1.000000 )  

     reciprocal axes: (cart. coord. in units 2 pi/alat)
               b(1) = (  1.000000  0.000000  0.000000 )  
               b(2) = (  0.000000  1.000000  0.000000 )  
               b(3) = (  0.000000  0.000000  1.000000 )  


     PseudoPot. # 1 for Li read from file:
     ../../pseudopotentials/Li.pbe-s-kjpaw_psl.1.0.0.UPF
     MD5 check sum: d3662511b3860c829f7212fdb89d6128
     Pseudo is Projector augmented-wave, Zval =  3.0
     Generated using &quot;atomic&quot; code by A. Dal Corso  v.6.3
     Shape of augmentation charge: PSQ
     Using radial grid of 1017 points,  4 beta functions with: 
                l(1) =   0
                l(2) =   0
                l(3) =   1
                l(4) =   1
     Q(r) pseudized with 0 coefficients 


     atomic species   valence    mass     pseudopotential
     Li                3.00     6.94000     Li( 1.00)

     No symmetry found



   Cartesian axes

     site n.     atom                  positions (alat units)
         1        Li     tau(   1) = (   0.0654010   0.0921020   0.8906640  )
         2        Li     tau(   2) = (   0.4529130   0.5798120   0.4226470  )

     number of k points=    36  Gaussian smearing, width (Ry)=  0.0100
                       cart. coord. in units 2pi/alat
        k(    1) = (   0.0000000   0.0000000   0.0000000), wk =   0.0312500
        k(    2) = (   0.0000000   0.0000000   0.2500000), wk =   0.0625000
        k(    3) = (   0.0000000   0.0000000  -0.5000000), wk =   0.0312500
        k(    4) = (   0.0000000   0.2500000   0.2500000), wk =   0.0625000
        k(    5) = (   0.0000000   0.2500000  -0.5000000), wk =   0.0625000
        k(    6) = (   0.0000000  -0.5000000  -0.5000000), wk =   0.0312500
        k(    7) = (   0.2500000   0.2500000   0.2500000), wk =   0.0625000
        k(    8) = (   0.2500000   0.2500000  -0.5000000), wk =   0.0625000
        k(    9) = (   0.2500000  -0.5000000  -0.5000000), wk =   0.0625000
        k(   10) = (  -0.5000000  -0.5000000  -0.5000000), wk =   0.0312500
        k(   11) = (   0.2500000   0.0000000   0.0000000), wk =   0.0625000
        k(   12) = (   0.0000000   0.2500000   0.0000000), wk =   0.0625000
        k(   13) = (  -0.5000000   0.0000000   0.0000000), wk =   0.0312500
        k(   14) = (   0.0000000  -0.5000000   0.0000000), wk =   0.0312500
        k(   15) = (   0.0000000  -0.2500000   0.2500000), wk =   0.0625000
        k(   16) = (   0.2500000   0.0000000  -0.2500000), wk =   0.0625000
        k(   17) = (  -0.2500000   0.0000000  -0.2500000), wk =   0.0625000
        k(   18) = (   0.2500000  -0.2500000   0.0000000), wk =   0.0625000
        k(   19) = (  -0.2500000  -0.2500000   0.0000000), wk =   0.0625000
        k(   20) = (   0.2500000   0.0000000   0.5000000), wk =   0.0625000
        k(   21) = (  -0.5000000  -0.2500000   0.0000000), wk =   0.0625000
        k(   22) = (   0.0000000  -0.5000000   0.2500000), wk =   0.0625000
        k(   23) = (   0.2500000  -0.5000000   0.0000000), wk =   0.0625000
        k(   24) = (  -0.5000000   0.0000000   0.2500000), wk =   0.0625000
        k(   25) = (  -0.5000000   0.0000000   0.5000000), wk =   0.0312500
        k(   26) = (  -0.5000000   0.5000000   0.0000000), wk =   0.0312500
        k(   27) = (  -0.2500000  -0.2500000   0.2500000), wk =   0.0625000
        k(   28) = (  -0.2500000   0.2500000  -0.2500000), wk =   0.0625000
        k(   29) = (   0.2500000  -0.2500000  -0.2500000), wk =   0.0625000
        k(   30) = (  -0.2500000   0.2500000   0.5000000), wk =   0.0625000
        k(   31) = (  -0.5000000  -0.2500000   0.2500000), wk =   0.0625000
        k(   32) = (   0.5000000  -0.2500000  -0.2500000), wk =   0.0625000
        k(   33) = (  -0.2500000  -0.5000000   0.2500000), wk =   0.0625000
        k(   34) = (  -0.2500000   0.5000000  -0.2500000), wk =   0.0625000
        k(   35) = (  -0.5000000   0.2500000   0.5000000), wk =   0.0625000
        k(   36) = (  -0.5000000   0.5000000   0.2500000), wk =   0.0625000

     Dense  grid:   105399 G-vectors     FFT dimensions: (  60,  60,  60)

     Smooth grid:    26745 G-vectors     FFT dimensions: (  40,  40,  40)

     Estimated max dynamical RAM per process >     152.83 MB

     Initial potential from superposition of free atoms

     starting charge       5.9908, renormalised to       6.0000
     Starting wfcs are   10 randomized atomic wfcs
     Checking if some PAW data can be deallocated... 

     total cpu time spent up to now is        0.5 secs

     Self-consistent Calculation

     iteration #  1     ecut=    30.00 Ry     beta= 0.70
     Davidson diagonalization with overlap
     ethr =  1.00E-02,  avg # of iterations =  2.0

     Threshold (ethr) on eigenvalues was too large:
     Diagonalizing with lowered threshold

     Davidson diagonalization with overlap
     ethr =  2.86E-04,  avg # of iterations =  1.3

     total cpu time spent up to now is        1.8 secs

     total energy              =     -29.79842997 Ry
     estimated scf accuracy    <       0.01782983 Ry

     iteration #  2     ecut=    30.00 Ry     beta= 0.70
     Davidson diagonalization with overlap
     ethr =  2.97E-04,  avg # of iterations =  1.0

     total cpu time spent up to now is        2.5 secs

     total energy              =     -29.79926035 Ry
     estimated scf accuracy    <       0.00105137 Ry

     iteration #  3     ecut=    30.00 Ry     beta= 0.70
     Davidson diagonalization with overlap
     ethr =  1.75E-05,  avg # of iterations =  2.5

     total cpu time spent up to now is        3.3 secs

     total energy              =     -29.79939031 Ry
     estimated scf accuracy    <       0.00001618 Ry

     iteration #  4     ecut=    30.00 Ry     beta= 0.70
     Davidson diagonalization with overlap
     ethr =  2.70E-07,  avg # of iterations =  4.1

     total cpu time spent up to now is        4.1 secs

     total energy              =     -29.79939560 Ry
     estimated scf accuracy    <       0.00000028 Ry

     iteration #  5     ecut=    30.00 Ry     beta= 0.70
     Davidson diagonalization with overlap
     ethr =  4.61E-09,  avg # of iterations =  3.0

     total cpu time spent up to now is        5.0 secs

     End of self-consistent calculation

          k = 0.0000 0.0000 0.0000 (  3287 PWs)   bands (ev):

   -51.3783 -51.3760  -3.2052   0.5016   0.5125   0.6523   1.1202

          k = 0.0000 0.0000 0.2500 (  3331 PWs)   bands (ev):

   -51.3981 -51.3904  -2.9390  -0.8313   0.7669   0.8969   1.3791

          k = 0.0000 0.0000-0.5000 (  3362 PWs)   bands (ev):

   -51.4100 -51.4050  -2.1926  -2.0842   1.4069   1.4395   1.5546

          k = 0.0000 0.2500 0.2500 (  3333 PWs)   bands (ev):

   -51.3967 -51.3953  -2.6717  -0.6202  -0.5206   1.1184   1.4647

          k = 0.0000 0.2500-0.5000 (  3326 PWs)   bands (ev):

   -51.3971 -51.3918  -1.9284  -1.8164   0.1394   0.2793   1.6703

          k = 0.0000-0.5000-0.5000 (  3348 PWs)   bands (ev):

   -51.4074 -51.3981  -1.2000  -1.1738  -0.9783  -0.9500   2.0144

          k = 0.2500 0.2500 0.2500 (  3329 PWs)   bands (ev):

   -51.3962 -51.3936  -2.4095  -0.3570  -0.3078  -0.2463   1.4299

          k = 0.2500 0.2500-0.5000 (  3314 PWs)   bands (ev):

   -51.3917 -51.3881  -1.6713  -1.5558   0.3558   0.3836   0.5344

          k = 0.2500-0.5000-0.5000 (  3312 PWs)   bands (ev):

   -51.3927 -51.3858  -0.9381  -0.9078  -0.7364  -0.7046   1.0785

          k =-0.5000-0.5000-0.5000 (  3328 PWs)   bands (ev):

   -51.3982 -51.3926  -0.3881  -0.3589  -0.1333  -0.1050   0.0609

          k = 0.2500 0.0000 0.0000 (  3331 PWs)   bands (ev):

   -51.3962 -51.3923  -2.9428  -0.7879   0.7435   0.7545   1.4914

          k = 0.0000 0.2500 0.0000 (  3331 PWs)   bands (ev):

   -51.3995 -51.3890  -2.9389  -0.8348   0.7762   0.9010   1.3733

          k =-0.5000 0.0000 0.0000 (  3362 PWs)   bands (ev):

   -51.4122 -51.4028  -2.3128  -1.9305   1.1927   1.2025   1.9195

          k = 0.0000-0.5000 0.0000 (  3362 PWs)   bands (ev):

   -51.4086 -51.4064  -2.1605  -2.1190   1.4342   1.4959   1.5232

          k = 0.0000-0.2500 0.2500 (  3333 PWs)   bands (ev):

   -51.4007 -51.3912  -2.6721  -0.6187  -0.5204   1.1172   1.4518

          k = 0.2500 0.0000-0.2500 (  3333 PWs)   bands (ev):

   -51.4034 -51.3885  -2.6773  -0.5954  -0.5046   1.0008   1.3782

          k =-0.2500 0.0000-0.2500 (  3333 PWs)   bands (ev):

   -51.4007 -51.3913  -2.6758  -0.6040  -0.5047   0.9980   1.4402

          k = 0.2500-0.2500 0.0000 (  3333 PWs)   bands (ev):

   -51.3976 -51.3943  -2.6760  -0.6045  -0.5043   1.0086   1.4217

          k =-0.2500-0.2500 0.0000 (  3333 PWs)   bands (ev):

   -51.3997 -51.3922  -2.6765  -0.6012  -0.5043   1.0094   1.3974

          k = 0.2500 0.0000 0.5000 (  3326 PWs)   bands (ev):

   -51.3963 -51.3926  -1.9342  -1.8225   0.1807   0.3164   1.6194

          k =-0.5000-0.2500 0.0000 (  3326 PWs)   bands (ev):

   -51.3965 -51.3924  -2.0524  -1.6581  -0.0175   0.4636   1.4345

          k = 0.0000-0.5000 0.2500 (  3326 PWs)   bands (ev):

   -51.3967 -51.3921  -1.8957  -1.8527   0.1843   0.2379   1.7073

          k = 0.2500-0.5000 0.0000 (  3326 PWs)   bands (ev):

   -51.3949 -51.3940  -1.9011  -1.8583   0.2212   0.2733   1.6829

          k =-0.5000 0.0000 0.2500 (  3326 PWs)   bands (ev):

   -51.3992 -51.3897  -2.0524  -1.6588  -0.0142   0.4665   1.4244

          k =-0.5000 0.0000 0.5000 (  3348 PWs)   bands (ev):

   -51.4053 -51.4002  -1.3423  -1.2313  -0.8894  -0.7673   1.8976

          k =-0.5000 0.5000 0.0000 (  3348 PWs)   bands (ev):

   -51.4029 -51.4026  -1.3093  -1.2665  -0.8534  -0.8066   1.9435

          k =-0.2500-0.2500 0.2500 (  3329 PWs)   bands (ev):

   -51.4012 -51.3886  -2.4109  -0.3553  -0.3007  -0.2448   1.3907

          k =-0.2500 0.2500-0.2500 (  3329 PWs)   bands (ev):

   -51.3997 -51.3901  -2.4091  -0.3552  -0.3114  -0.2469   1.4394

          k = 0.2500-0.2500-0.2500 (  3329 PWs)   bands (ev):

   -51.3973 -51.3924  -2.4102  -0.3575  -0.3025  -0.2456   1.4084

          k =-0.2500 0.2500 0.5000 (  3314 PWs)   bands (ev):

   -51.3931 -51.3867  -1.6708  -1.5554   0.3410   0.3709   0.5551

          k =-0.5000-0.2500 0.2500 (  3314 PWs)   bands (ev):

   -51.3967 -51.3831  -1.7926  -1.3867   0.1777   0.2908   0.5727

          k = 0.5000-0.2500-0.2500 (  3314 PWs)   bands (ev):

   -51.3935 -51.3863  -1.7926  -1.3865   0.1737   0.2906   0.5765

          k =-0.2500-0.5000 0.2500 (  3314 PWs)   bands (ev):

   -51.3915 -51.3883  -1.6379  -1.5936   0.3914   0.4061   0.5368

          k =-0.2500 0.5000-0.2500 (  3314 PWs)   bands (ev):

   -51.3934 -51.3864  -1.6368  -1.5926   0.3541   0.3661   0.5863

          k =-0.5000 0.2500 0.5000 (  3312 PWs)   bands (ev):

   -51.3906 -51.3880  -1.0825  -0.9640  -0.6322  -0.5059   0.8862

          k =-0.5000 0.5000 0.2500 (  3312 PWs)   bands (ev):

   -51.3906 -51.3880  -1.0481  -1.0026  -0.5950  -0.5465   0.9339

     the Fermi energy is    -1.6561 ev

!    total energy              =     -29.79939589 Ry
     total all-electron energy =       -29.799419 Ry
     estimated scf accuracy    <          5.4E-09 Ry
     smearing contrib. (-TS)   =      -0.00181920 Ry
     internal energy E=F+TS    =     -29.79757669 Ry

     The total energy is F=E-TS. E is the sum of the following terms:
     one-electron contribution =     -26.90038579 Ry
     hartree contribution      =       9.81154329 Ry
     xc contribution           =      -6.73454798 Ry
     ewald contribution        =      -6.11814552 Ry
     one-center paw contrib.   =       0.14395932 Ry

     convergence has been achieved in   5 iterations

     Forces acting on atoms (cartesian axes, Ry/au):

     atom    1 type  1   force =     0.00290508    0.00035861   -0.00089338
     atom    2 type  1   force =    -0.00290508   -0.00035861    0.00089338

     Total force =     0.004328     Total SCF correction =     0.000045


     Computing stress (Cartesian axis) and pressure

          total   stress  (Ry/bohr**3)                   (kbar)     P=      -63.93
  -0.00042812  -0.00000021   0.00000051          -62.98       -0.03        0.07
  -0.00000021  -0.00043837   0.00000006           -0.03      -64.49        0.01
   0.00000051   0.00000006  -0.00043724            0.07        0.01      -64.32


     Writing all to output data dir ./tmp/Li_config_17.save/ :
     XML data file, charge density, pseudopotentials, collected wavefunctions

     init_run     :      0.48s CPU      0.50s WALL (       1 calls)
     electrons    :      4.13s CPU      4.43s WALL (       1 calls)
     forces       :      0.08s CPU      0.09s WALL (       1 calls)
     stress       :      0.42s CPU      0.44s WALL (       1 calls)

     Called by init_run:
     wfcinit      :      0.29s CPU      0.30s WALL (       1 calls)
     potinit      :      0.07s CPU      0.08s WALL (       1 calls)
     hinit0       :      0.07s CPU      0.07s WALL (       1 calls)

     Called by electrons:
     c_bands      :      2.92s CPU      3.12s WALL (       6 calls)
     sum_band     :      0.74s CPU      0.79s WALL (       6 calls)
     v_of_rho     :      0.23s CPU      0.25s WALL (       6 calls)
     newd         :      0.15s CPU      0.18s WALL (       6 calls)
     PAW_pot      :      0.13s CPU      0.13s WALL (       6 calls)
     mix_rho      :      0.02s CPU      0.02s WALL (       6 calls)

     Called by c_bands:
     init_us_2    :      0.10s CPU      0.12s WALL (     540 calls)
     cegterg      :      2.82s CPU      3.00s WALL (     216 calls)

     Called by *egterg:
     cdiaghg      :      0.02s CPU      0.02s WALL (     681 calls)
     h_psi        :      2.64s CPU      2.75s WALL (     753 calls)
     s_psi        :      0.07s CPU      0.08s WALL (     753 calls)
     g_psi        :      0.01s CPU      0.01s WALL (     501 calls)

     Called by h_psi:
     h_psi:calbec :      0.09s CPU      0.12s WALL (     753 calls)
     vloc_psi     :      2.47s CPU      2.53s WALL (     753 calls)
     add_vuspsi   :      0.07s CPU      0.08s WALL (     753 calls)

     General routines
     calbec       :      0.15s CPU      0.19s WALL (    1149 calls)
     fft          :      0.13s CPU      0.13s WALL (      85 calls)
     ffts         :      0.01s CPU      0.01s WALL (      12 calls)
     fftw         :      2.39s CPU      2.43s WALL (    9652 calls)
     interpolate  :      0.02s CPU      0.02s WALL (       6 calls)

     Parallel routines

     PWSCF        :      5.15s CPU      5.51s WALL


   This run was terminated on:   9:11:57  28Jan2025            

=------------------------------------------------------------------------------=
   JOB DONE.
=------------------------------------------------------------------------------=
Note: The following floating-point exceptions are signalling: IEEE_INVALID_FLAG IEEE_DIVIDE_BY_ZERO IEEE_OVERFLOW_FLAG IEEE_UNDERFLOW_FLAG
