[Williams-MacBook-Air.local:93760] shmem: mmap: an error occurred while determining whether or not /var/folders/hy/k_vp1md94sz2dr40dtrs6ln80000gn/T//ompi.Williams-MacBook-Air.501/jf.0/313982976/sm_segment.Williams-MacBook-Air.501.12b70000.0 could be created.

     Program PWSCF v.7.3.1 starts on 28Jan2025 at  9:13:51 

     This program is part of the open-source Quantum ESPRESSO suite
     for quantum simulation of materials; please cite
         "P. Giannozzi et al., J. Phys.:Condens. Matter 21 395502 (2009);
         "P. Giannozzi et al., J. Phys.:Condens. Matter 29 465901 (2017);
         "P. Giannozzi et al., J. Chem. Phys. 152 154105 (2020);
          URL http://www.quantum-espresso.org", 
     in publications or presentations arising from this work. More details at
     http://www.quantum-espresso.org/quote

     Parallel version (MPI), running on     1 processors

     MPI processes distributed on     1 nodes
     0 MiB available memory on the printing compute node when the environment starts

     Reading input from Li_config_37.in

     Current dimensions of program PWSCF are:
     Max number of different atomic species (ntypx) = 10
     Max number of k-points (npk) =  40000
     Max angular momentum in pseudopotentials (lmaxx) =  4

     Subspace diagonalization in iterative solution of the eigenvalue problem:
     a serial algorithm will be used


     G-vector sticks info
     --------------------
     sticks:   dense  smooth     PW     G-vecs:    dense   smooth      PW
     Sum        3001    1201    357               124487    31463    5041

     Using Slab Decomposition



     bravais-lattice index     =            1
     lattice parameter (alat)  =      11.2457  a.u.
     unit-cell volume          =    1422.2044 (a.u.)^3
     number of atoms/cell      =            2
     number of atomic types    =            1
     number of electrons       =         6.00
     number of Kohn-Sham states=            7
     kinetic-energy cutoff     =      30.0000  Ry
     charge density cutoff     =     300.0000  Ry
     scf convergence threshold =      1.0E-08
     mixing beta               =       0.7000
     number of iterations used =            8  plain     mixing
     Exchange-correlation= SLA  PW   PBX  PBC
                           (   1   4   3   4   0   0   0)

     celldm(1)=  11.245722  celldm(2)=   0.000000  celldm(3)=   0.000000
     celldm(4)=   0.000000  celldm(5)=   0.000000  celldm(6)=   0.000000

     crystal axes: (cart. coord. in units of alat)
               a(1) = (   1.000000   0.000000   0.000000 )  
               a(2) = (   0.000000   1.000000   0.000000 )  
               a(3) = (   0.000000   0.000000   1.000000 )  

     reciprocal axes: (cart. coord. in units 2 pi/alat)
               b(1) = (  1.000000  0.000000  0.000000 )  
               b(2) = (  0.000000  1.000000  0.000000 )  
               b(3) = (  0.000000  0.000000  1.000000 )  


     PseudoPot. # 1 for Li read from file:
     ../../pseudopotentials/Li.pbe-s-kjpaw_psl.1.0.0.UPF
     MD5 check sum: d3662511b3860c829f7212fdb89d6128
     Pseudo is Projector augmented-wave, Zval =  3.0
     Generated using &quot;atomic&quot; code by A. Dal Corso  v.6.3
     Shape of augmentation charge: PSQ
     Using radial grid of 1017 points,  4 beta functions with: 
                l(1) =   0
                l(2) =   0
                l(3) =   1
                l(4) =   1
     Q(r) pseudized with 0 coefficients 


     atomic species   valence    mass     pseudopotential
     Li                3.00     6.94000     Li( 1.00)

     No symmetry found



   Cartesian axes

     site n.     atom                  positions (alat units)
         1        Li     tau(   1) = (   0.9218770   0.0180310   0.9016190  )
         2        Li     tau(   2) = (   0.4234310   0.6454450   0.4427690  )

     number of k points=    36  Gaussian smearing, width (Ry)=  0.0100
                       cart. coord. in units 2pi/alat
        k(    1) = (   0.0000000   0.0000000   0.0000000), wk =   0.0312500
        k(    2) = (   0.0000000   0.0000000   0.2500000), wk =   0.0625000
        k(    3) = (   0.0000000   0.0000000  -0.5000000), wk =   0.0312500
        k(    4) = (   0.0000000   0.2500000   0.2500000), wk =   0.0625000
        k(    5) = (   0.0000000   0.2500000  -0.5000000), wk =   0.0625000
        k(    6) = (   0.0000000  -0.5000000  -0.5000000), wk =   0.0312500
        k(    7) = (   0.2500000   0.2500000   0.2500000), wk =   0.0625000
        k(    8) = (   0.2500000   0.2500000  -0.5000000), wk =   0.0625000
        k(    9) = (   0.2500000  -0.5000000  -0.5000000), wk =   0.0625000
        k(   10) = (  -0.5000000  -0.5000000  -0.5000000), wk =   0.0312500
        k(   11) = (   0.2500000   0.0000000   0.0000000), wk =   0.0625000
        k(   12) = (   0.0000000   0.2500000   0.0000000), wk =   0.0625000
        k(   13) = (  -0.5000000   0.0000000   0.0000000), wk =   0.0312500
        k(   14) = (   0.0000000  -0.5000000   0.0000000), wk =   0.0312500
        k(   15) = (   0.0000000  -0.2500000   0.2500000), wk =   0.0625000
        k(   16) = (   0.2500000   0.0000000  -0.2500000), wk =   0.0625000
        k(   17) = (  -0.2500000   0.0000000  -0.2500000), wk =   0.0625000
        k(   18) = (   0.2500000  -0.2500000   0.0000000), wk =   0.0625000
        k(   19) = (  -0.2500000  -0.2500000   0.0000000), wk =   0.0625000
        k(   20) = (   0.2500000   0.0000000   0.5000000), wk =   0.0625000
        k(   21) = (  -0.5000000  -0.2500000   0.0000000), wk =   0.0625000
        k(   22) = (   0.0000000  -0.5000000   0.2500000), wk =   0.0625000
        k(   23) = (   0.2500000  -0.5000000   0.0000000), wk =   0.0625000
        k(   24) = (  -0.5000000   0.0000000   0.2500000), wk =   0.0625000
        k(   25) = (  -0.5000000   0.0000000   0.5000000), wk =   0.0312500
        k(   26) = (  -0.5000000   0.5000000   0.0000000), wk =   0.0312500
        k(   27) = (  -0.2500000  -0.2500000   0.2500000), wk =   0.0625000
        k(   28) = (  -0.2500000   0.2500000  -0.2500000), wk =   0.0625000
        k(   29) = (   0.2500000  -0.2500000  -0.2500000), wk =   0.0625000
        k(   30) = (  -0.2500000   0.2500000   0.5000000), wk =   0.0625000
        k(   31) = (  -0.5000000  -0.2500000   0.2500000), wk =   0.0625000
        k(   32) = (   0.5000000  -0.2500000  -0.2500000), wk =   0.0625000
        k(   33) = (  -0.2500000  -0.5000000   0.2500000), wk =   0.0625000
        k(   34) = (  -0.2500000   0.5000000  -0.2500000), wk =   0.0625000
        k(   35) = (  -0.5000000   0.2500000   0.5000000), wk =   0.0625000
        k(   36) = (  -0.5000000   0.5000000   0.2500000), wk =   0.0625000

     Dense  grid:   124487 G-vectors     FFT dimensions: (  64,  64,  64)

     Smooth grid:    31463 G-vectors     FFT dimensions: (  40,  40,  40)

     Estimated max dynamical RAM per process >     180.98 MB

     Initial potential from superposition of free atoms

     starting charge       5.9908, renormalised to       6.0000
     Starting wfcs are   10 randomized atomic wfcs
     Checking if some PAW data can be deallocated... 

     total cpu time spent up to now is        0.6 secs

     Self-consistent Calculation

     iteration #  1     ecut=    30.00 Ry     beta= 0.70
     Davidson diagonalization with overlap
     ethr =  1.00E-02,  avg # of iterations =  2.0

     Threshold (ethr) on eigenvalues was too large:
     Diagonalizing with lowered threshold

     Davidson diagonalization with overlap
     ethr =  3.04E-04,  avg # of iterations =  1.2

     total cpu time spent up to now is        2.1 secs

     total energy              =     -29.77664871 Ry
     estimated scf accuracy    <       0.01897915 Ry

     iteration #  2     ecut=    30.00 Ry     beta= 0.70
     Davidson diagonalization with overlap
     ethr =  3.16E-04,  avg # of iterations =  1.0

     total cpu time spent up to now is        2.7 secs

     total energy              =     -29.77761161 Ry
     estimated scf accuracy    <       0.00117259 Ry

     iteration #  3     ecut=    30.00 Ry     beta= 0.70
     Davidson diagonalization with overlap
     ethr =  1.95E-05,  avg # of iterations =  2.0

     total cpu time spent up to now is        3.5 secs

     total energy              =     -29.77777863 Ry
     estimated scf accuracy    <       0.00002386 Ry

     iteration #  4     ecut=    30.00 Ry     beta= 0.70
     Davidson diagonalization with overlap
     ethr =  3.98E-07,  avg # of iterations =  3.7

     total cpu time spent up to now is        4.4 secs

     total energy              =     -29.77778849 Ry
     estimated scf accuracy    <       0.00000051 Ry

     iteration #  5     ecut=    30.00 Ry     beta= 0.70
     Davidson diagonalization with overlap
     ethr =  8.43E-09,  avg # of iterations =  2.9

     total cpu time spent up to now is        5.2 secs

     End of self-consistent calculation

          k = 0.0000 0.0000 0.0000 (  3911 PWs)   bands (ev):

   -51.7199 -51.7182  -3.1664   0.1707   0.1877   0.3509   0.4310

          k = 0.0000 0.0000 0.2500 (  3948 PWs)   bands (ev):

   -51.7318 -51.7274  -2.9281  -1.0443   0.4022   0.5571   0.7681

          k = 0.0000 0.0000-0.5000 (  3948 PWs)   bands (ev):

   -51.7289 -51.7287  -2.2826  -2.1364   0.9386   0.9530   1.0574

          k = 0.0000 0.2500 0.2500 (  3930 PWs)   bands (ev):

   -51.7292 -51.7162  -2.6961  -0.8396  -0.7315   0.6002   0.8953

          k = 0.0000 0.2500-0.5000 (  3948 PWs)   bands (ev):

   -51.7370 -51.7197  -2.0560  -1.9062  -0.1524   0.0102   1.1125

          k = 0.0000-0.5000-0.5000 (  3932 PWs)   bands (ev):

   -51.7350 -51.7109  -1.5612  -1.4050  -1.0731  -0.9150   1.3403

          k = 0.2500 0.2500 0.2500 (  3926 PWs)   bands (ev):

   -51.7265 -51.7157  -2.4577  -0.6630  -0.5566  -0.4790   0.8651

          k = 0.2500 0.2500-0.5000 (  3940 PWs)   bands (ev):

   -51.7293 -51.7218  -1.8205  -1.6682  -0.0495   0.0260   0.1772

          k = 0.2500-0.5000-0.5000 (  3968 PWs)   bands (ev):

   -51.7380 -51.7308  -1.3328  -1.1757  -0.8379  -0.6849   0.4119

          k =-0.5000-0.5000-0.5000 (  3912 PWs)   bands (ev):

   -51.7167 -51.7163  -0.6642  -0.6585  -0.5250  -0.5198  -0.1809

          k = 0.2500 0.0000 0.0000 (  3948 PWs)   bands (ev):

   -51.7303 -51.7289  -2.9272  -1.0514   0.4195   0.5648   0.7573

          k = 0.0000 0.2500 0.0000 (  3948 PWs)   bands (ev):

   -51.7309 -51.7283  -2.9348  -0.9878   0.3753   0.3933   0.8611

          k =-0.5000 0.0000 0.0000 (  3948 PWs)   bands (ev):

   -51.7290 -51.7286  -2.2151  -2.2096   0.9690   0.9752   1.1077

          k = 0.0000-0.5000 0.0000 (  3948 PWs)   bands (ev):

   -51.7313 -51.7263  -2.4142  -1.9597   0.7340   0.7445   1.3456

          k = 0.0000-0.2500 0.2500 (  3930 PWs)   bands (ev):

   -51.7324 -51.7131  -2.6960  -0.8365  -0.7430   0.5966   0.9692

          k = 0.2500 0.0000-0.2500 (  3930 PWs)   bands (ev):

   -51.7233 -51.7221  -2.6881  -0.8436  -0.7826   0.7335   0.9858

          k =-0.2500 0.0000-0.2500 (  3930 PWs)   bands (ev):

   -51.7234 -51.7220  -2.6881  -0.8437  -0.7823   0.7332   0.9837

          k = 0.2500-0.2500 0.0000 (  3930 PWs)   bands (ev):

   -51.7249 -51.7205  -2.6953  -0.8430  -0.7385   0.6157   0.9334

          k =-0.2500-0.2500 0.0000 (  3930 PWs)   bands (ev):

   -51.7251 -51.7203  -2.6953  -0.8431  -0.7381   0.6157   0.9305

          k = 0.2500 0.0000 0.5000 (  3948 PWs)   bands (ev):

   -51.7293 -51.7273  -2.0463  -1.8967  -0.2131  -0.0425   1.1871

          k =-0.5000-0.2500 0.0000 (  3948 PWs)   bands (ev):

   -51.7284 -51.7282  -1.9868  -1.9812  -0.0769  -0.0708   1.2283

          k = 0.0000-0.5000 0.2500 (  3948 PWs)   bands (ev):

   -51.7332 -51.7234  -2.1812  -1.7181  -0.3596   0.1554   0.9346

          k = 0.2500-0.5000 0.0000 (  3948 PWs)   bands (ev):

   -51.7334 -51.7232  -2.1809  -1.7168  -0.3669   0.1498   0.9545

          k =-0.5000 0.0000 0.2500 (  3948 PWs)   bands (ev):

   -51.7285 -51.7281  -1.9782  -1.9726  -0.1273  -0.1209   1.2402

          k =-0.5000 0.0000 0.5000 (  3932 PWs)   bands (ev):

   -51.7232 -51.7226  -1.3468  -1.3408  -1.1879  -1.1820   1.4852

          k =-0.5000 0.5000 0.0000 (  3932 PWs)   bands (ev):

   -51.7230 -51.7228  -1.4889  -1.4831  -0.9997  -0.9937   1.4315

          k =-0.2500-0.2500 0.2500 (  3926 PWs)   bands (ev):

   -51.7245 -51.7177  -2.4574  -0.6610  -0.5563  -0.4899   0.9032

          k =-0.2500 0.2500-0.2500 (  3926 PWs)   bands (ev):

   -51.7250 -51.7172  -2.4574  -0.6609  -0.5560  -0.4904   0.9044

          k = 0.2500-0.2500-0.2500 (  3926 PWs)   bands (ev):

   -51.7266 -51.7157  -2.4577  -0.6629  -0.5570  -0.4792   0.8672

          k =-0.2500 0.2500 0.5000 (  3940 PWs)   bands (ev):

   -51.7291 -51.7221  -1.8205  -1.6682  -0.0497   0.0243   0.1792

          k =-0.5000-0.2500 0.2500 (  3940 PWs)   bands (ev):

   -51.7257 -51.7254  -1.7508  -1.7451  -0.0102  -0.0078   0.2732

          k = 0.5000-0.2500-0.2500 (  3940 PWs)   bands (ev):

   -51.7257 -51.7254  -1.7516  -1.7458   0.0065   0.0102   0.2511

          k =-0.2500-0.5000 0.2500 (  3940 PWs)   bands (ev):

   -51.7327 -51.7184  -1.9486  -1.4767  -0.1527  -0.1258   0.1959

          k =-0.2500 0.5000-0.2500 (  3940 PWs)   bands (ev):

   -51.7326 -51.7185  -1.9486  -1.4767  -0.1529  -0.1253   0.1954

          k =-0.5000 0.2500 0.5000 (  3968 PWs)   bands (ev):

   -51.7346 -51.7342  -1.1280  -1.1221  -0.9666  -0.9607   0.6477

          k =-0.5000 0.5000 0.2500 (  3968 PWs)   bands (ev):

   -51.7345 -51.7343  -1.2612  -1.2553  -0.7684  -0.7626   0.5103

     the Fermi energy is    -1.7728 ev

!    total energy              =     -29.77778902 Ry
     total all-electron energy =       -29.777812 Ry
     estimated scf accuracy    <          9.8E-09 Ry
     smearing contrib. (-TS)   =      -0.00180139 Ry
     internal energy E=F+TS    =     -29.77598764 Ry

     The total energy is F=E-TS. E is the sum of the following terms:
     one-electron contribution =     -27.46576873 Ry
     hartree contribution      =      10.02762509 Ry
     xc contribution           =      -6.71509301 Ry
     ewald contribution        =      -5.76670544 Ry
     one-center paw contrib.   =       0.14395447 Ry

     convergence has been achieved in   5 iterations

     Forces acting on atoms (cartesian axes, Ry/au):

     atom    1 type  1   force =    -0.00005716   -0.00414429   -0.00164675
     atom    2 type  1   force =     0.00005716    0.00414429    0.00164675

     Total force =     0.006307     Total SCF correction =     0.000080


     Computing stress (Cartesian axis) and pressure

          total   stress  (Ry/bohr**3)                   (kbar)     P=      -53.57
  -0.00036815  -0.00000006  -0.00000002          -54.16       -0.01       -0.00
  -0.00000006  -0.00035778  -0.00000153           -0.01      -52.63       -0.22
  -0.00000002  -0.00000153  -0.00036661           -0.00       -0.22      -53.93


     Writing all to output data dir ./tmp/Li_config_37.save/ :
     XML data file, charge density, pseudopotentials, collected wavefunctions

     init_run     :      0.54s CPU      0.58s WALL (       1 calls)
     electrons    :      4.38s CPU      4.61s WALL (       1 calls)
     forces       :      0.10s CPU      0.11s WALL (       1 calls)
     stress       :      0.51s CPU      0.54s WALL (       1 calls)

     Called by init_run:
     wfcinit      :      0.32s CPU      0.34s WALL (       1 calls)
     potinit      :      0.09s CPU      0.10s WALL (       1 calls)
     hinit0       :      0.07s CPU      0.08s WALL (       1 calls)

     Called by electrons:
     c_bands      :      3.01s CPU      3.16s WALL (       6 calls)
     sum_band     :      0.80s CPU      0.84s WALL (       6 calls)
     v_of_rho     :      0.32s CPU      0.34s WALL (       6 calls)
     newd         :      0.18s CPU      0.21s WALL (       6 calls)
     PAW_pot      :      0.13s CPU      0.13s WALL (       6 calls)
     mix_rho      :      0.03s CPU      0.03s WALL (       6 calls)

     Called by c_bands:
     init_us_2    :      0.12s CPU      0.14s WALL (     540 calls)
     cegterg      :      2.89s CPU      3.03s WALL (     216 calls)

     Called by *egterg:
     cdiaghg      :      0.02s CPU      0.02s WALL (     643 calls)
     h_psi        :      2.72s CPU      2.78s WALL (     715 calls)
     s_psi        :      0.06s CPU      0.07s WALL (     715 calls)
     g_psi        :      0.01s CPU      0.01s WALL (     463 calls)

     Called by h_psi:
     h_psi:calbec :      0.10s CPU      0.12s WALL (     715 calls)
     vloc_psi     :      2.54s CPU      2.56s WALL (     715 calls)
     add_vuspsi   :      0.07s CPU      0.08s WALL (     715 calls)

     General routines
     calbec       :      0.16s CPU      0.19s WALL (    1111 calls)
     fft          :      0.21s CPU      0.21s WALL (      85 calls)
     ffts         :      0.01s CPU      0.01s WALL (      12 calls)
     fftw         :      2.40s CPU      2.41s WALL (    9608 calls)
     interpolate  :      0.02s CPU      0.02s WALL (       6 calls)

     Parallel routines

     PWSCF        :      5.55s CPU      5.89s WALL


   This run was terminated on:   9:13:57  28Jan2025            

=------------------------------------------------------------------------------=
   JOB DONE.
=------------------------------------------------------------------------------=
Note: The following floating-point exceptions are signalling: IEEE_INVALID_FLAG IEEE_DIVIDE_BY_ZERO IEEE_OVERFLOW_FLAG IEEE_UNDERFLOW_FLAG
