[Williams-MacBook-Air.local:93741] shmem: mmap: an error occurred while determining whether or not /var/folders/hy/k_vp1md94sz2dr40dtrs6ln80000gn/T//ompi.Williams-MacBook-Air.501/jf.0/3225681920/sm_segment.Williams-MacBook-Air.501.c0440000.0 could be created.

     Program PWSCF v.7.3.1 starts on 28Jan2025 at  9:13:19 

     This program is part of the open-source Quantum ESPRESSO suite
     for quantum simulation of materials; please cite
         "P. Giannozzi et al., J. Phys.:Condens. Matter 21 395502 (2009);
         "P. Giannozzi et al., J. Phys.:Condens. Matter 29 465901 (2017);
         "P. Giannozzi et al., J. Chem. Phys. 152 154105 (2020);
          URL http://www.quantum-espresso.org", 
     in publications or presentations arising from this work. More details at
     http://www.quantum-espresso.org/quote

     Parallel version (MPI), running on     1 processors

     MPI processes distributed on     1 nodes
     0 MiB available memory on the printing compute node when the environment starts

     Reading input from Li_config_31.in

     Current dimensions of program PWSCF are:
     Max number of different atomic species (ntypx) = 10
     Max number of k-points (npk) =  40000
     Max angular momentum in pseudopotentials (lmaxx) =  4

     Subspace diagonalization in iterative solution of the eigenvalue problem:
     a serial algorithm will be used


     G-vector sticks info
     --------------------
     sticks:   dense  smooth     PW     G-vecs:    dense   smooth      PW
     Sum        3149    1265    373               133387    33641    5449

     Using Slab Decomposition



     bravais-lattice index     =            1
     lattice parameter (alat)  =      11.4989  a.u.
     unit-cell volume          =    1520.4354 (a.u.)^3
     number of atoms/cell      =            2
     number of atomic types    =            1
     number of electrons       =         6.00
     number of Kohn-Sham states=            7
     kinetic-energy cutoff     =      30.0000  Ry
     charge density cutoff     =     300.0000  Ry
     scf convergence threshold =      1.0E-08
     mixing beta               =       0.7000
     number of iterations used =            8  plain     mixing
     Exchange-correlation= SLA  PW   PBX  PBC
                           (   1   4   3   4   0   0   0)

     celldm(1)=  11.498892  celldm(2)=   0.000000  celldm(3)=   0.000000
     celldm(4)=   0.000000  celldm(5)=   0.000000  celldm(6)=   0.000000

     crystal axes: (cart. coord. in units of alat)
               a(1) = (   1.000000   0.000000   0.000000 )  
               a(2) = (   0.000000   1.000000   0.000000 )  
               a(3) = (   0.000000   0.000000   1.000000 )  

     reciprocal axes: (cart. coord. in units 2 pi/alat)
               b(1) = (  1.000000  0.000000  0.000000 )  
               b(2) = (  0.000000  1.000000  0.000000 )  
               b(3) = (  0.000000  0.000000  1.000000 )  


     PseudoPot. # 1 for Li read from file:
     ../../pseudopotentials/Li.pbe-s-kjpaw_psl.1.0.0.UPF
     MD5 check sum: d3662511b3860c829f7212fdb89d6128
     Pseudo is Projector augmented-wave, Zval =  3.0
     Generated using &quot;atomic&quot; code by A. Dal Corso  v.6.3
     Shape of augmentation charge: PSQ
     Using radial grid of 1017 points,  4 beta functions with: 
                l(1) =   0
                l(2) =   0
                l(3) =   1
                l(4) =   1
     Q(r) pseudized with 0 coefficients 


     atomic species   valence    mass     pseudopotential
     Li                3.00     6.94000     Li( 1.00)

     No symmetry found



   Cartesian axes

     site n.     atom                  positions (alat units)
         1        Li     tau(   1) = (   0.1105560   0.1110450   0.9261910  )
         2        Li     tau(   2) = (   0.5791630   0.6327580   0.5426200  )

     number of k points=    36  Gaussian smearing, width (Ry)=  0.0100
                       cart. coord. in units 2pi/alat
        k(    1) = (   0.0000000   0.0000000   0.0000000), wk =   0.0312500
        k(    2) = (   0.0000000   0.0000000   0.2500000), wk =   0.0625000
        k(    3) = (   0.0000000   0.0000000  -0.5000000), wk =   0.0312500
        k(    4) = (   0.0000000   0.2500000   0.2500000), wk =   0.0625000
        k(    5) = (   0.0000000   0.2500000  -0.5000000), wk =   0.0625000
        k(    6) = (   0.0000000  -0.5000000  -0.5000000), wk =   0.0312500
        k(    7) = (   0.2500000   0.2500000   0.2500000), wk =   0.0625000
        k(    8) = (   0.2500000   0.2500000  -0.5000000), wk =   0.0625000
        k(    9) = (   0.2500000  -0.5000000  -0.5000000), wk =   0.0625000
        k(   10) = (  -0.5000000  -0.5000000  -0.5000000), wk =   0.0312500
        k(   11) = (   0.2500000   0.0000000   0.0000000), wk =   0.0625000
        k(   12) = (   0.0000000   0.2500000   0.0000000), wk =   0.0625000
        k(   13) = (  -0.5000000   0.0000000   0.0000000), wk =   0.0312500
        k(   14) = (   0.0000000  -0.5000000   0.0000000), wk =   0.0312500
        k(   15) = (   0.0000000  -0.2500000   0.2500000), wk =   0.0625000
        k(   16) = (   0.2500000   0.0000000  -0.2500000), wk =   0.0625000
        k(   17) = (  -0.2500000   0.0000000  -0.2500000), wk =   0.0625000
        k(   18) = (   0.2500000  -0.2500000   0.0000000), wk =   0.0625000
        k(   19) = (  -0.2500000  -0.2500000   0.0000000), wk =   0.0625000
        k(   20) = (   0.2500000   0.0000000   0.5000000), wk =   0.0625000
        k(   21) = (  -0.5000000  -0.2500000   0.0000000), wk =   0.0625000
        k(   22) = (   0.0000000  -0.5000000   0.2500000), wk =   0.0625000
        k(   23) = (   0.2500000  -0.5000000   0.0000000), wk =   0.0625000
        k(   24) = (  -0.5000000   0.0000000   0.2500000), wk =   0.0625000
        k(   25) = (  -0.5000000   0.0000000   0.5000000), wk =   0.0312500
        k(   26) = (  -0.5000000   0.5000000   0.0000000), wk =   0.0312500
        k(   27) = (  -0.2500000  -0.2500000   0.2500000), wk =   0.0625000
        k(   28) = (  -0.2500000   0.2500000  -0.2500000), wk =   0.0625000
        k(   29) = (   0.2500000  -0.2500000  -0.2500000), wk =   0.0625000
        k(   30) = (  -0.2500000   0.2500000   0.5000000), wk =   0.0625000
        k(   31) = (  -0.5000000  -0.2500000   0.2500000), wk =   0.0625000
        k(   32) = (   0.5000000  -0.2500000  -0.2500000), wk =   0.0625000
        k(   33) = (  -0.2500000  -0.5000000   0.2500000), wk =   0.0625000
        k(   34) = (  -0.2500000   0.5000000  -0.2500000), wk =   0.0625000
        k(   35) = (  -0.5000000   0.2500000   0.5000000), wk =   0.0625000
        k(   36) = (  -0.5000000   0.5000000   0.2500000), wk =   0.0625000

     Dense  grid:   133387 G-vectors     FFT dimensions: (  64,  64,  64)

     Smooth grid:    33641 G-vectors     FFT dimensions: (  45,  45,  45)

     Estimated max dynamical RAM per process >     192.57 MB

     Initial potential from superposition of free atoms

     starting charge       5.9908, renormalised to       6.0000
     Starting wfcs are   10 randomized atomic wfcs
     Checking if some PAW data can be deallocated... 

     total cpu time spent up to now is        0.7 secs

     Self-consistent Calculation

     iteration #  1     ecut=    30.00 Ry     beta= 0.70
     Davidson diagonalization with overlap
     ethr =  1.00E-02,  avg # of iterations =  2.0

     Threshold (ethr) on eigenvalues was too large:
     Diagonalizing with lowered threshold

     Davidson diagonalization with overlap
     ethr =  3.07E-04,  avg # of iterations =  1.3

     total cpu time spent up to now is        2.5 secs

     total energy              =     -29.76805181 Ry
     estimated scf accuracy    <       0.01908864 Ry

     iteration #  2     ecut=    30.00 Ry     beta= 0.70
     Davidson diagonalization with overlap
     ethr =  3.18E-04,  avg # of iterations =  1.0

     total cpu time spent up to now is        3.4 secs

     total energy              =     -29.76906984 Ry
     estimated scf accuracy    <       0.00121787 Ry

     iteration #  3     ecut=    30.00 Ry     beta= 0.70
     Davidson diagonalization with overlap
     ethr =  2.03E-05,  avg # of iterations =  1.9

     total cpu time spent up to now is        4.3 secs

     total energy              =     -29.76925287 Ry
     estimated scf accuracy    <       0.00002749 Ry

     iteration #  4     ecut=    30.00 Ry     beta= 0.70
     Davidson diagonalization with overlap
     ethr =  4.58E-07,  avg # of iterations =  4.1

     total cpu time spent up to now is        5.6 secs

     total energy              =     -29.76926527 Ry
     estimated scf accuracy    <       0.00000072 Ry

     iteration #  5     ecut=    30.00 Ry     beta= 0.70
     Davidson diagonalization with overlap
     ethr =  1.19E-08,  avg # of iterations =  2.7

     total cpu time spent up to now is        6.6 secs

     total energy              =     -29.76926584 Ry
     estimated scf accuracy    <       0.00000001 Ry

     iteration #  6     ecut=    30.00 Ry     beta= 0.70
     Davidson diagonalization with overlap
     ethr =  2.32E-10,  avg # of iterations =  3.0

     total cpu time spent up to now is        7.6 secs

     End of self-consistent calculation

          k = 0.0000 0.0000 0.0000 (  4169 PWs)   bands (ev):

   -51.8452 -51.8392  -3.1482   0.0663   0.0764   0.1881   0.2105

          k = 0.0000 0.0000 0.2500 (  4196 PWs)   bands (ev):

   -51.8521 -51.8508  -2.9259  -1.0731   0.2642   0.2735   0.6353

          k = 0.0000 0.0000-0.5000 (  4220 PWs)   bands (ev):

   -51.8629 -51.8557  -2.4238  -2.0033   0.6123   0.6262   1.1063

          k = 0.0000 0.2500 0.2500 (  4214 PWs)   bands (ev):

   -51.8596 -51.8551  -2.6979  -0.9541  -0.7985   0.4824   0.7434

          k = 0.0000 0.2500-0.5000 (  4216 PWs)   bands (ev):

   -51.8620 -51.8543  -2.2001  -1.7729  -0.4565   0.0060   0.8130

          k = 0.0000-0.5000-0.5000 (  4196 PWs)   bands (ev):

   -51.8557 -51.8475  -1.5767  -1.4958  -1.1203  -1.0399   1.2092

          k = 0.2500 0.2500 0.2500 (  4212 PWs)   bands (ev):

   -51.8581 -51.8548  -2.4700  -0.8106  -0.6163  -0.5573   0.7004

          k = 0.2500 0.2500-0.5000 (  4238 PWs)   bands (ev):

   -51.8650 -51.8644  -1.9782  -1.5455  -0.2854  -0.1946   0.0400

          k = 0.2500-0.5000-0.5000 (  4216 PWs)   bands (ev):

   -51.8609 -51.8542  -1.3600  -1.2801  -0.8965  -0.8205   0.3288

          k =-0.5000-0.5000-0.5000 (  4224 PWs)   bands (ev):

   -51.8687 -51.8528  -0.7977  -0.7528  -0.6257  -0.6006  -0.3006

          k = 0.2500 0.0000 0.0000 (  4196 PWs)   bands (ev):

   -51.8527 -51.8502  -2.9196  -1.1231   0.2886   0.4112   0.5646

          k = 0.0000 0.2500 0.0000 (  4196 PWs)   bands (ev):

   -51.8528 -51.8502  -2.9193  -1.1253   0.2936   0.4136   0.5614

          k =-0.5000 0.0000 0.0000 (  4220 PWs)   bands (ev):

   -51.8607 -51.8579  -2.2903  -2.1776   0.7757   0.8455   0.8679

          k = 0.0000-0.5000 0.0000 (  4220 PWs)   bands (ev):

   -51.8594 -51.8592  -2.2738  -2.1958   0.7822   0.8486   0.8822

          k = 0.0000-0.2500 0.2500 (  4214 PWs)   bands (ev):

   -51.8581 -51.8566  -2.6976  -0.9520  -0.8053   0.4812   0.7810

          k = 0.2500 0.0000-0.2500 (  4214 PWs)   bands (ev):

   -51.8614 -51.8533  -2.6982  -0.9533  -0.7963   0.4780   0.7351

          k =-0.2500 0.0000-0.2500 (  4214 PWs)   bands (ev):

   -51.8581 -51.8566  -2.6979  -0.9503  -0.8061   0.4758   0.7889

          k = 0.2500-0.2500 0.0000 (  4214 PWs)   bands (ev):

   -51.8606 -51.8541  -2.6909  -0.9629  -0.8314   0.5787   0.8000

          k =-0.2500-0.2500 0.0000 (  4214 PWs)   bands (ev):

   -51.8602 -51.8545  -2.6911  -0.9616  -0.8341   0.5820   0.8201

          k = 0.2500 0.0000 0.5000 (  4216 PWs)   bands (ev):

   -51.8600 -51.8563  -2.2005  -1.7732  -0.4540   0.0076   0.8076

          k =-0.5000-0.2500 0.0000 (  4216 PWs)   bands (ev):

   -51.8600 -51.8564  -2.0642  -1.9495  -0.3056  -0.1793   1.0294

          k = 0.0000-0.5000 0.2500 (  4216 PWs)   bands (ev):

   -51.8614 -51.8550  -2.0557  -1.9763  -0.2383  -0.1545   1.0075

          k = 0.2500-0.5000 0.0000 (  4216 PWs)   bands (ev):

   -51.8591 -51.8573  -2.0477  -1.9684  -0.2848  -0.1977   1.0410

          k =-0.5000 0.0000 0.2500 (  4216 PWs)   bands (ev):

   -51.8610 -51.8554  -2.0725  -1.9578  -0.2562  -0.1348   0.9804

          k =-0.5000 0.0000 0.5000 (  4196 PWs)   bands (ev):

   -51.8568 -51.8463  -1.5940  -1.4771  -1.1371  -1.0209   1.1902

          k =-0.5000 0.5000 0.0000 (  4196 PWs)   bands (ev):

   -51.8544 -51.8487  -1.4381  -1.3722  -1.2849  -1.2197   1.2870

          k =-0.2500-0.2500 0.2500 (  4212 PWs)   bands (ev):

   -51.8576 -51.8554  -2.4701  -0.8109  -0.6166  -0.5546   0.6928

          k =-0.2500 0.2500-0.2500 (  4212 PWs)   bands (ev):

   -51.8618 -51.8512  -2.4694  -0.8109  -0.6131  -0.5639   0.7128

          k = 0.2500-0.2500-0.2500 (  4212 PWs)   bands (ev):

   -51.8621 -51.8509  -2.4705  -0.8119  -0.6130  -0.5509   0.6699

          k =-0.2500 0.2500 0.5000 (  4238 PWs)   bands (ev):

   -51.8693 -51.8601  -1.9781  -1.5458  -0.2867  -0.1881   0.0344

          k =-0.5000-0.2500 0.2500 (  4238 PWs)   bands (ev):

   -51.8654 -51.8639  -1.8483  -1.7319  -0.1764  -0.1109   0.0772

          k = 0.5000-0.2500-0.2500 (  4238 PWs)   bands (ev):

   -51.8702 -51.8592  -1.8485  -1.7323  -0.1756  -0.0978   0.0634

          k =-0.2500-0.5000 0.2500 (  4238 PWs)   bands (ev):

   -51.8695 -51.8599  -1.8318  -1.7515  -0.1621  -0.1063   0.0853

          k =-0.2500 0.5000-0.2500 (  4238 PWs)   bands (ev):

   -51.8665 -51.8628  -1.8315  -1.7509  -0.1646  -0.1203   0.1004

          k =-0.5000 0.2500 0.5000 (  4216 PWs)   bands (ev):

   -51.8604 -51.8546  -1.3769  -1.2616  -0.9117  -0.8020   0.3062

          k =-0.5000 0.5000 0.2500 (  4216 PWs)   bands (ev):

   -51.8632 -51.8519  -1.2323  -1.1723  -1.0633  -1.0050   0.4792

     the Fermi energy is    -1.8174 ev

!    total energy              =     -29.76926587 Ry
     total all-electron energy =       -29.769289 Ry
     estimated scf accuracy    <          7.3E-10 Ry
     smearing contrib. (-TS)   =      -0.00189097 Ry
     internal energy E=F+TS    =     -29.76737490 Ry

     The total energy is F=E-TS. E is the sum of the following terms:
     one-electron contribution =     -27.64881243 Ry
     hartree contribution      =      10.09305032 Ry
     xc contribution           =      -6.70688827 Ry
     ewald contribution        =      -5.64872356 Ry
     one-center paw contrib.   =       0.14399905 Ry

     convergence has been achieved in   6 iterations

     Forces acting on atoms (cartesian axes, Ry/au):

     atom    1 type  1   force =     0.00135713   -0.00094721   -0.00416687
     atom    2 type  1   force =    -0.00135713    0.00094721    0.00416687

     Total force =     0.006341     Total SCF correction =     0.000019


     Computing stress (Cartesian axis) and pressure

          total   stress  (Ry/bohr**3)                   (kbar)     P=      -49.92
  -0.00034166   0.00000029   0.00000132          -50.26        0.04        0.19
   0.00000029  -0.00034208  -0.00000092            0.04      -50.32       -0.14
   0.00000132  -0.00000092  -0.00033423            0.19       -0.14      -49.17


     Writing all to output data dir ./tmp/Li_config_31.save/ :
     XML data file, charge density, pseudopotentials, collected wavefunctions

     init_run     :      0.64s CPU      0.67s WALL (       1 calls)
     electrons    :      6.63s CPU      6.87s WALL (       1 calls)
     forces       :      0.10s CPU      0.11s WALL (       1 calls)
     stress       :      0.54s CPU      0.57s WALL (       1 calls)

     Called by init_run:
     wfcinit      :      0.42s CPU      0.42s WALL (       1 calls)
     potinit      :      0.09s CPU      0.10s WALL (       1 calls)
     hinit0       :      0.07s CPU      0.08s WALL (       1 calls)

     Called by electrons:
     c_bands      :      4.74s CPU      4.88s WALL (       7 calls)
     sum_band     :      1.19s CPU      1.24s WALL (       7 calls)
     v_of_rho     :      0.37s CPU      0.39s WALL (       7 calls)
     newd         :      0.22s CPU      0.26s WALL (       7 calls)
     PAW_pot      :      0.15s CPU      0.15s WALL (       7 calls)
     mix_rho      :      0.03s CPU      0.04s WALL (       7 calls)

     Called by c_bands:
     init_us_2    :      0.15s CPU      0.16s WALL (     612 calls)
     cegterg      :      4.59s CPU      4.73s WALL (     252 calls)

     Called by *egterg:
     cdiaghg      :      0.02s CPU      0.02s WALL (     795 calls)
     h_psi        :      4.40s CPU      4.45s WALL (     867 calls)
     s_psi        :      0.08s CPU      0.09s WALL (     867 calls)
     g_psi        :      0.01s CPU      0.01s WALL (     579 calls)

     Called by h_psi:
     h_psi:calbec :      0.13s CPU      0.15s WALL (     867 calls)
     vloc_psi     :      4.16s CPU      4.19s WALL (     867 calls)
     add_vuspsi   :      0.09s CPU      0.10s WALL (     867 calls)

     General routines
     calbec       :      0.20s CPU      0.23s WALL (    1299 calls)
     fft          :      0.25s CPU      0.25s WALL (      98 calls)
     ffts         :      0.01s CPU      0.01s WALL (      14 calls)
     fftw         :      4.15s CPU      4.17s WALL (   11072 calls)
     interpolate  :      0.03s CPU      0.03s WALL (       7 calls)

     Parallel routines

     PWSCF        :      7.95s CPU      8.27s WALL


   This run was terminated on:   9:13:27  28Jan2025            

=------------------------------------------------------------------------------=
   JOB DONE.
=------------------------------------------------------------------------------=
Note: The following floating-point exceptions are signalling: IEEE_INVALID_FLAG IEEE_DIVIDE_BY_ZERO IEEE_OVERFLOW_FLAG IEEE_UNDERFLOW_FLAG
