[Williams-MacBook-Air.local:93589] shmem: mmap: an error occurred while determining whether or not /var/folders/hy/k_vp1md94sz2dr40dtrs6ln80000gn/T//ompi.Williams-MacBook-Air.501/jf.0/2535063552/sm_segment.Williams-MacBook-Air.501.971a0000.0 could be created.

     Program PWSCF v.7.3.1 starts on 28Jan2025 at  9:10:47 

     This program is part of the open-source Quantum ESPRESSO suite
     for quantum simulation of materials; please cite
         "P. Giannozzi et al., J. Phys.:Condens. Matter 21 395502 (2009);
         "P. Giannozzi et al., J. Phys.:Condens. Matter 29 465901 (2017);
         "P. Giannozzi et al., J. Chem. Phys. 152 154105 (2020);
          URL http://www.quantum-espresso.org", 
     in publications or presentations arising from this work. More details at
     http://www.quantum-espresso.org/quote

     Parallel version (MPI), running on     1 processors

     MPI processes distributed on     1 nodes
     0 MiB available memory on the printing compute node when the environment starts

     Reading input from Li_config_6.in

     Current dimensions of program PWSCF are:
     Max number of different atomic species (ntypx) = 10
     Max number of k-points (npk) =  40000
     Max angular momentum in pseudopotentials (lmaxx) =  4

     Subspace diagonalization in iterative solution of the eigenvalue problem:
     a serial algorithm will be used


     G-vector sticks info
     --------------------
     sticks:   dense  smooth     PW     G-vecs:    dense   smooth      PW
     Sum        3125    1237    365               130195    32795    5257

     Using Slab Decomposition



     bravais-lattice index     =            1
     lattice parameter (alat)  =      11.3981  a.u.
     unit-cell volume          =    1480.8209 (a.u.)^3
     number of atoms/cell      =            2
     number of atomic types    =            1
     number of electrons       =         6.00
     number of Kohn-Sham states=            7
     kinetic-energy cutoff     =      30.0000  Ry
     charge density cutoff     =     300.0000  Ry
     scf convergence threshold =      1.0E-08
     mixing beta               =       0.7000
     number of iterations used =            8  plain     mixing
     Exchange-correlation= SLA  PW   PBX  PBC
                           (   1   4   3   4   0   0   0)

     celldm(1)=  11.398145  celldm(2)=   0.000000  celldm(3)=   0.000000
     celldm(4)=   0.000000  celldm(5)=   0.000000  celldm(6)=   0.000000

     crystal axes: (cart. coord. in units of alat)
               a(1) = (   1.000000   0.000000   0.000000 )  
               a(2) = (   0.000000   1.000000   0.000000 )  
               a(3) = (   0.000000   0.000000   1.000000 )  

     reciprocal axes: (cart. coord. in units 2 pi/alat)
               b(1) = (  1.000000  0.000000  0.000000 )  
               b(2) = (  0.000000  1.000000  0.000000 )  
               b(3) = (  0.000000  0.000000  1.000000 )  


     PseudoPot. # 1 for Li read from file:
     ../../pseudopotentials/Li.pbe-s-kjpaw_psl.1.0.0.UPF
     MD5 check sum: d3662511b3860c829f7212fdb89d6128
     Pseudo is Projector augmented-wave, Zval =  3.0
     Generated using &quot;atomic&quot; code by A. Dal Corso  v.6.3
     Shape of augmentation charge: PSQ
     Using radial grid of 1017 points,  4 beta functions with: 
                l(1) =   0
                l(2) =   0
                l(3) =   1
                l(4) =   1
     Q(r) pseudized with 0 coefficients 


     atomic species   valence    mass     pseudopotential
     Li                3.00     6.94000     Li( 1.00)

     No symmetry found



   Cartesian axes

     site n.     atom                  positions (alat units)
         1        Li     tau(   1) = (   0.0592870   0.0983200   0.1283300  )
         2        Li     tau(   2) = (   0.5174340   0.4792430   0.3770440  )

     number of k points=    36  Gaussian smearing, width (Ry)=  0.0100
                       cart. coord. in units 2pi/alat
        k(    1) = (   0.0000000   0.0000000   0.0000000), wk =   0.0312500
        k(    2) = (   0.0000000   0.0000000   0.2500000), wk =   0.0625000
        k(    3) = (   0.0000000   0.0000000  -0.5000000), wk =   0.0312500
        k(    4) = (   0.0000000   0.2500000   0.2500000), wk =   0.0625000
        k(    5) = (   0.0000000   0.2500000  -0.5000000), wk =   0.0625000
        k(    6) = (   0.0000000  -0.5000000  -0.5000000), wk =   0.0312500
        k(    7) = (   0.2500000   0.2500000   0.2500000), wk =   0.0625000
        k(    8) = (   0.2500000   0.2500000  -0.5000000), wk =   0.0625000
        k(    9) = (   0.2500000  -0.5000000  -0.5000000), wk =   0.0625000
        k(   10) = (  -0.5000000  -0.5000000  -0.5000000), wk =   0.0312500
        k(   11) = (   0.2500000   0.0000000   0.0000000), wk =   0.0625000
        k(   12) = (   0.0000000   0.2500000   0.0000000), wk =   0.0625000
        k(   13) = (  -0.5000000   0.0000000   0.0000000), wk =   0.0312500
        k(   14) = (   0.0000000  -0.5000000   0.0000000), wk =   0.0312500
        k(   15) = (   0.0000000  -0.2500000   0.2500000), wk =   0.0625000
        k(   16) = (   0.2500000   0.0000000  -0.2500000), wk =   0.0625000
        k(   17) = (  -0.2500000   0.0000000  -0.2500000), wk =   0.0625000
        k(   18) = (   0.2500000  -0.2500000   0.0000000), wk =   0.0625000
        k(   19) = (  -0.2500000  -0.2500000   0.0000000), wk =   0.0625000
        k(   20) = (   0.2500000   0.0000000   0.5000000), wk =   0.0625000
        k(   21) = (  -0.5000000  -0.2500000   0.0000000), wk =   0.0625000
        k(   22) = (   0.0000000  -0.5000000   0.2500000), wk =   0.0625000
        k(   23) = (   0.2500000  -0.5000000   0.0000000), wk =   0.0625000
        k(   24) = (  -0.5000000   0.0000000   0.2500000), wk =   0.0625000
        k(   25) = (  -0.5000000   0.0000000   0.5000000), wk =   0.0312500
        k(   26) = (  -0.5000000   0.5000000   0.0000000), wk =   0.0312500
        k(   27) = (  -0.2500000  -0.2500000   0.2500000), wk =   0.0625000
        k(   28) = (  -0.2500000   0.2500000  -0.2500000), wk =   0.0625000
        k(   29) = (   0.2500000  -0.2500000  -0.2500000), wk =   0.0625000
        k(   30) = (  -0.2500000   0.2500000   0.5000000), wk =   0.0625000
        k(   31) = (  -0.5000000  -0.2500000   0.2500000), wk =   0.0625000
        k(   32) = (   0.5000000  -0.2500000  -0.2500000), wk =   0.0625000
        k(   33) = (  -0.2500000  -0.5000000   0.2500000), wk =   0.0625000
        k(   34) = (  -0.2500000   0.5000000  -0.2500000), wk =   0.0625000
        k(   35) = (  -0.5000000   0.2500000   0.5000000), wk =   0.0625000
        k(   36) = (  -0.5000000   0.5000000   0.2500000), wk =   0.0625000

     Dense  grid:   130195 G-vectors     FFT dimensions: (  64,  64,  64)

     Smooth grid:    32795 G-vectors     FFT dimensions: (  40,  40,  40)

     Estimated max dynamical RAM per process >     188.36 MB

     Initial potential from superposition of free atoms

     starting charge       5.9908, renormalised to       6.0000
     Starting wfcs are   10 randomized atomic wfcs
     Checking if some PAW data can be deallocated... 

     total cpu time spent up to now is        0.6 secs

     Self-consistent Calculation

     iteration #  1     ecut=    30.00 Ry     beta= 0.70
     Davidson diagonalization with overlap
     ethr =  1.00E-02,  avg # of iterations =  2.0

     Threshold (ethr) on eigenvalues was too large:
     Diagonalizing with lowered threshold

     Davidson diagonalization with overlap
     ethr =  3.54E-04,  avg # of iterations =  1.5

     total cpu time spent up to now is        2.0 secs

     total energy              =     -29.78188045 Ry
     estimated scf accuracy    <       0.02271157 Ry

     iteration #  2     ecut=    30.00 Ry     beta= 0.70
     Davidson diagonalization with overlap
     ethr =  3.79E-04,  avg # of iterations =  1.0

     total cpu time spent up to now is        2.7 secs

     total energy              =     -29.78305482 Ry
     estimated scf accuracy    <       0.00113414 Ry

     iteration #  3     ecut=    30.00 Ry     beta= 0.70
     Davidson diagonalization with overlap
     ethr =  1.89E-05,  avg # of iterations =  2.6

     total cpu time spent up to now is        3.5 secs

     total energy              =     -29.78323183 Ry
     estimated scf accuracy    <       0.00004053 Ry

     iteration #  4     ecut=    30.00 Ry     beta= 0.70
     Davidson diagonalization with overlap
     ethr =  6.75E-07,  avg # of iterations =  4.9

     total cpu time spent up to now is        4.5 secs

     total energy              =     -29.78324899 Ry
     estimated scf accuracy    <       0.00000347 Ry

     iteration #  5     ecut=    30.00 Ry     beta= 0.70
     Davidson diagonalization with overlap
     ethr =  5.79E-08,  avg # of iterations =  2.8

     total cpu time spent up to now is        5.3 secs

     total energy              =     -29.78325128 Ry
     estimated scf accuracy    <       0.00000010 Ry

     iteration #  6     ecut=    30.00 Ry     beta= 0.70
     Davidson diagonalization with overlap
     ethr =  1.74E-09,  avg # of iterations =  3.3

     total cpu time spent up to now is        6.1 secs

     End of self-consistent calculation

          k = 0.0000 0.0000 0.0000 (  4067 PWs)   bands (ev):

   -51.5525 -51.5484  -3.1559  -0.0191   0.1536   0.3162   0.6909

          k = 0.0000 0.0000 0.2500 (  4100 PWs)   bands (ev):

   -51.5637 -51.5596  -2.9535  -0.8979   0.1280   0.3100   0.7725

          k = 0.0000 0.0000-0.5000 (  4116 PWs)   bands (ev):

   -51.5707 -51.5632  -2.5897  -1.7008   0.3175   0.5041   1.1151

          k = 0.0000 0.2500 0.2500 (  4096 PWs)   bands (ev):

   -51.5616 -51.5589  -2.7330  -0.8823  -0.6642   0.3316   0.8628

          k = 0.0000 0.2500-0.5000 (  4094 PWs)   bands (ev):

   -51.5613 -51.5570  -2.3751  -1.4706  -0.5759   0.3925   0.5324

          k = 0.0000-0.5000-0.5000 (  4116 PWs)   bands (ev):

   -51.5696 -51.5625  -1.9035  -1.4591  -0.9693  -0.4879   0.8218

          k = 0.2500 0.2500 0.2500 (  4121 PWs)   bands (ev):

   -51.5695 -51.5655  -2.5090  -0.7338  -0.6599  -0.4283   0.7328

          k = 0.2500 0.2500-0.5000 (  4130 PWs)   bands (ev):

   -51.5715 -51.5686  -2.1588  -1.2351  -0.4509  -0.3482   0.3488

          k = 0.2500-0.5000-0.5000 (  4120 PWs)   bands (ev):

   -51.5707 -51.5637  -1.6937  -1.2355  -0.7406  -0.2938  -0.0421

          k =-0.5000-0.5000-0.5000 (  4032 PWs)   bands (ev):

   -51.5391 -51.5376  -1.1494  -0.9827  -0.6352  -0.4837  -0.1876

          k = 0.2500 0.0000 0.0000 (  4100 PWs)   bands (ev):

   -51.5675 -51.5557  -2.9281  -1.1266   0.3456   0.5371   0.8467

          k = 0.0000 0.2500 0.0000 (  4100 PWs)   bands (ev):

   -51.5629 -51.5603  -2.9333  -1.0650   0.1883   0.5645   0.8120

          k =-0.5000 0.0000 0.0000 (  4116 PWs)   bands (ev):

   -51.5718 -51.5622  -2.3146  -2.1659   0.6862   0.8073   1.0677

          k = 0.0000-0.5000 0.0000 (  4116 PWs)   bands (ev):

   -51.5689 -51.5651  -2.4313  -2.0012   0.5267   0.8775   0.9261

          k = 0.0000-0.2500 0.2500 (  4096 PWs)   bands (ev):

   -51.5636 -51.5568  -2.7308  -0.8854  -0.6849   0.3280   1.0300

          k = 0.2500 0.0000-0.2500 (  4096 PWs)   bands (ev):

   -51.5627 -51.5578  -2.7260  -0.9479  -0.6753   0.5007   0.9242

          k =-0.2500 0.0000-0.2500 (  4096 PWs)   bands (ev):

   -51.5618 -51.5586  -2.7270  -0.9437  -0.6665   0.4883   0.8599

          k = 0.2500-0.2500 0.0000 (  4096 PWs)   bands (ev):

   -51.5659 -51.5546  -2.7050  -0.9173  -0.8456   0.7444   0.8397

          k =-0.2500-0.2500 0.0000 (  4096 PWs)   bands (ev):

   -51.5654 -51.5551  -2.7059  -0.9123  -0.8332   0.6501   0.8720

          k = 0.2500 0.0000 0.5000 (  4094 PWs)   bands (ev):

   -51.5640 -51.5543  -2.3697  -1.4619  -0.6506   0.3486   0.7392

          k =-0.5000-0.2500 0.0000 (  4094 PWs)   bands (ev):

   -51.5656 -51.5528  -2.0965  -1.9437  -0.2679  -0.0931   1.1313

          k = 0.0000-0.5000 0.2500 (  4094 PWs)   bands (ev):

   -51.5606 -51.5577  -2.2374  -1.8012  -0.2256   0.2437   0.6705

          k = 0.2500-0.5000 0.0000 (  4094 PWs)   bands (ev):

   -51.5630 -51.5553  -2.2088  -1.7676  -0.4731   0.0512   1.0806

          k =-0.5000 0.0000 0.2500 (  4094 PWs)   bands (ev):

   -51.5623 -51.5560  -2.1201  -1.9688  -0.0982   0.0633   0.9576

          k =-0.5000 0.0000 0.5000 (  4116 PWs)   bands (ev):

   -51.5678 -51.5642  -1.7878  -1.6322  -0.8324  -0.6669   1.1014

          k =-0.5000 0.5000 0.0000 (  4116 PWs)   bands (ev):

   -51.5753 -51.5569  -1.6253  -1.4617  -1.1477  -0.9846   1.3542

          k =-0.2500-0.2500 0.2500 (  4121 PWs)   bands (ev):

   -51.5744 -51.5608  -2.5055  -0.7371  -0.6588  -0.4688   0.9072

          k =-0.2500 0.2500-0.2500 (  4121 PWs)   bands (ev):

   -51.5732 -51.5618  -2.5057  -0.7405  -0.6735  -0.4530   0.9051

          k = 0.2500-0.2500-0.2500 (  4121 PWs)   bands (ev):

   -51.5722 -51.5629  -2.5067  -0.7460  -0.6733  -0.4317   0.8308

          k =-0.2500 0.2500 0.5000 (  4130 PWs)   bands (ev):

   -51.5774 -51.5628  -2.1571  -1.2348  -0.4780  -0.3451   0.3756

          k =-0.5000-0.2500 0.2500 (  4130 PWs)   bands (ev):

   -51.5758 -51.5644  -1.9045  -1.7495  -0.1511  -0.0653   0.2827

          k = 0.5000-0.2500-0.2500 (  4130 PWs)   bands (ev):

   -51.5735 -51.5667  -1.9072  -1.7516  -0.1197   0.0106   0.1747

          k =-0.2500-0.5000 0.2500 (  4130 PWs)   bands (ev):

   -51.5763 -51.5639  -2.0187  -1.5702  -0.3213  -0.0667   0.2525

          k =-0.2500 0.5000-0.2500 (  4130 PWs)   bands (ev):

   -51.5754 -51.5647  -2.0199  -1.5711  -0.3080  -0.0382   0.1997

          k =-0.5000 0.2500 0.5000 (  4120 PWs)   bands (ev):

   -51.5737 -51.5606  -1.5813  -1.4212  -0.6200  -0.4650   0.1967

          k =-0.5000 0.5000 0.2500 (  4120 PWs)   bands (ev):

   -51.5710 -51.5633  -1.4448  -1.2788  -0.9606  -0.7979   0.5167

     the Fermi energy is    -1.8000 ev

!    total energy              =     -29.78325142 Ry
     total all-electron energy =       -29.783274 Ry
     estimated scf accuracy    <          4.1E-09 Ry
     smearing contrib. (-TS)   =      -0.00133465 Ry
     internal energy E=F+TS    =     -29.78191676 Ry

     The total energy is F=E-TS. E is the sum of the following terms:
     one-electron contribution =     -28.03726598 Ry
     hartree contribution      =      10.34506512 Ry
     xc contribution           =      -6.73618792 Ry
     ewald contribution        =      -5.49780619 Ry
     one-center paw contrib.   =       0.14427820 Ry

     convergence has been achieved in   6 iterations

     Forces acting on atoms (cartesian axes, Ry/au):

     atom    1 type  1   force =     0.00153398    0.00404674    0.00472243
     atom    2 type  1   force =    -0.00153398   -0.00404674   -0.00472243

     Total force =     0.009059     Total SCF correction =     0.000038


     Computing stress (Cartesian axis) and pressure

          total   stress  (Ry/bohr**3)                   (kbar)     P=      -49.52
  -0.00035148  -0.00000102  -0.00000155          -51.70       -0.15       -0.23
  -0.00000102  -0.00034317  -0.00000423           -0.15      -50.48       -0.62
  -0.00000155  -0.00000423  -0.00031516           -0.23       -0.62      -46.36


     Writing all to output data dir ./tmp/Li_config_6.save/ :
     XML data file, charge density, pseudopotentials, collected wavefunctions

     init_run     :      0.54s CPU      0.57s WALL (       1 calls)
     electrons    :      5.29s CPU      5.50s WALL (       1 calls)
     forces       :      0.10s CPU      0.11s WALL (       1 calls)
     stress       :      0.52s CPU      0.55s WALL (       1 calls)

     Called by init_run:
     wfcinit      :      0.32s CPU      0.33s WALL (       1 calls)
     potinit      :      0.09s CPU      0.09s WALL (       1 calls)
     hinit0       :      0.07s CPU      0.07s WALL (       1 calls)

     Called by electrons:
     c_bands      :      3.66s CPU      3.78s WALL (       7 calls)
     sum_band     :      0.94s CPU      0.98s WALL (       7 calls)
     v_of_rho     :      0.36s CPU      0.39s WALL (       7 calls)
     newd         :      0.22s CPU      0.25s WALL (       7 calls)
     PAW_pot      :      0.15s CPU      0.15s WALL (       7 calls)
     mix_rho      :      0.03s CPU      0.04s WALL (       7 calls)

     Called by c_bands:
     init_us_2    :      0.14s CPU      0.15s WALL (     612 calls)
     cegterg      :      3.52s CPU      3.63s WALL (     252 calls)

     Called by *egterg:
     cdiaghg      :      0.03s CPU      0.03s WALL (     870 calls)
     h_psi        :      3.18s CPU      3.24s WALL (     942 calls)
     s_psi        :      0.09s CPU      0.09s WALL (     942 calls)
     g_psi        :      0.01s CPU      0.01s WALL (     654 calls)

     Called by h_psi:
     h_psi:calbec :      0.13s CPU      0.15s WALL (     942 calls)
     vloc_psi     :      2.94s CPU      2.96s WALL (     942 calls)
     add_vuspsi   :      0.10s CPU      0.11s WALL (     942 calls)

     General routines
     calbec       :      0.20s CPU      0.23s WALL (    1374 calls)
     fft          :      0.24s CPU      0.24s WALL (      98 calls)
     ffts         :      0.01s CPU      0.01s WALL (      14 calls)
     fftw         :      2.78s CPU      2.79s WALL (   11260 calls)
     interpolate  :      0.02s CPU      0.03s WALL (       7 calls)

     Parallel routines

     PWSCF        :      6.48s CPU      6.84s WALL


   This run was terminated on:   9:10:54  28Jan2025            

=------------------------------------------------------------------------------=
   JOB DONE.
=------------------------------------------------------------------------------=
Note: The following floating-point exceptions are signalling: IEEE_INVALID_FLAG IEEE_DIVIDE_BY_ZERO IEEE_OVERFLOW_FLAG IEEE_UNDERFLOW_FLAG
