[Williams-MacBook-Air.local:93635] shmem: mmap: an error occurred while determining whether or not /var/folders/hy/k_vp1md94sz2dr40dtrs6ln80000gn/T//ompi.Williams-MacBook-Air.501/jf.0/4171956224/sm_segment.Williams-MacBook-Air.501.f8ab0000.0 could be created.

     Program PWSCF v.7.3.1 starts on 28Jan2025 at  9:11:46 

     This program is part of the open-source Quantum ESPRESSO suite
     for quantum simulation of materials; please cite
         "P. Giannozzi et al., J. Phys.:Condens. Matter 21 395502 (2009);
         "P. Giannozzi et al., J. Phys.:Condens. Matter 29 465901 (2017);
         "P. Giannozzi et al., J. Chem. Phys. 152 154105 (2020);
          URL http://www.quantum-espresso.org", 
     in publications or presentations arising from this work. More details at
     http://www.quantum-espresso.org/quote

     Parallel version (MPI), running on     1 processors

     MPI processes distributed on     1 nodes
     0 MiB available memory on the printing compute node when the environment starts

     Reading input from Li_config_16.in

     Current dimensions of program PWSCF are:
     Max number of different atomic species (ntypx) = 10
     Max number of k-points (npk) =  40000
     Max angular momentum in pseudopotentials (lmaxx) =  4

     Subspace diagonalization in iterative solution of the eigenvalue problem:
     a serial algorithm will be used


     G-vector sticks info
     --------------------
     sticks:   dense  smooth     PW     G-vecs:    dense   smooth      PW
     Sum        2601    1041    305               100377    25413    4139

     Using Slab Decomposition



     bravais-lattice index     =            1
     lattice parameter (alat)  =      10.4543  a.u.
     unit-cell volume          =    1142.5784 (a.u.)^3
     number of atoms/cell      =            2
     number of atomic types    =            1
     number of electrons       =         6.00
     number of Kohn-Sham states=            7
     kinetic-energy cutoff     =      30.0000  Ry
     charge density cutoff     =     300.0000  Ry
     scf convergence threshold =      1.0E-08
     mixing beta               =       0.7000
     number of iterations used =            8  plain     mixing
     Exchange-correlation= SLA  PW   PBX  PBC
                           (   1   4   3   4   0   0   0)

     celldm(1)=  10.454309  celldm(2)=   0.000000  celldm(3)=   0.000000
     celldm(4)=   0.000000  celldm(5)=   0.000000  celldm(6)=   0.000000

     crystal axes: (cart. coord. in units of alat)
               a(1) = (   1.000000   0.000000   0.000000 )  
               a(2) = (   0.000000   1.000000   0.000000 )  
               a(3) = (   0.000000   0.000000   1.000000 )  

     reciprocal axes: (cart. coord. in units 2 pi/alat)
               b(1) = (  1.000000  0.000000  0.000000 )  
               b(2) = (  0.000000  1.000000  0.000000 )  
               b(3) = (  0.000000  0.000000  1.000000 )  


     PseudoPot. # 1 for Li read from file:
     ../../pseudopotentials/Li.pbe-s-kjpaw_psl.1.0.0.UPF
     MD5 check sum: d3662511b3860c829f7212fdb89d6128
     Pseudo is Projector augmented-wave, Zval =  3.0
     Generated using &quot;atomic&quot; code by A. Dal Corso  v.6.3
     Shape of augmentation charge: PSQ
     Using radial grid of 1017 points,  4 beta functions with: 
                l(1) =   0
                l(2) =   0
                l(3) =   1
                l(4) =   1
     Q(r) pseudized with 0 coefficients 


     atomic species   valence    mass     pseudopotential
     Li                3.00     6.94000     Li( 1.00)

     No symmetry found



   Cartesian axes

     site n.     atom                  positions (alat units)
         1        Li     tau(   1) = (   0.9481160   0.0667570   0.1425670  )
         2        Li     tau(   2) = (   0.4519480   0.5496690   0.5579900  )

     number of k points=    36  Gaussian smearing, width (Ry)=  0.0100
                       cart. coord. in units 2pi/alat
        k(    1) = (   0.0000000   0.0000000   0.0000000), wk =   0.0312500
        k(    2) = (   0.0000000   0.0000000   0.2500000), wk =   0.0625000
        k(    3) = (   0.0000000   0.0000000  -0.5000000), wk =   0.0312500
        k(    4) = (   0.0000000   0.2500000   0.2500000), wk =   0.0625000
        k(    5) = (   0.0000000   0.2500000  -0.5000000), wk =   0.0625000
        k(    6) = (   0.0000000  -0.5000000  -0.5000000), wk =   0.0312500
        k(    7) = (   0.2500000   0.2500000   0.2500000), wk =   0.0625000
        k(    8) = (   0.2500000   0.2500000  -0.5000000), wk =   0.0625000
        k(    9) = (   0.2500000  -0.5000000  -0.5000000), wk =   0.0625000
        k(   10) = (  -0.5000000  -0.5000000  -0.5000000), wk =   0.0312500
        k(   11) = (   0.2500000   0.0000000   0.0000000), wk =   0.0625000
        k(   12) = (   0.0000000   0.2500000   0.0000000), wk =   0.0625000
        k(   13) = (  -0.5000000   0.0000000   0.0000000), wk =   0.0312500
        k(   14) = (   0.0000000  -0.5000000   0.0000000), wk =   0.0312500
        k(   15) = (   0.0000000  -0.2500000   0.2500000), wk =   0.0625000
        k(   16) = (   0.2500000   0.0000000  -0.2500000), wk =   0.0625000
        k(   17) = (  -0.2500000   0.0000000  -0.2500000), wk =   0.0625000
        k(   18) = (   0.2500000  -0.2500000   0.0000000), wk =   0.0625000
        k(   19) = (  -0.2500000  -0.2500000   0.0000000), wk =   0.0625000
        k(   20) = (   0.2500000   0.0000000   0.5000000), wk =   0.0625000
        k(   21) = (  -0.5000000  -0.2500000   0.0000000), wk =   0.0625000
        k(   22) = (   0.0000000  -0.5000000   0.2500000), wk =   0.0625000
        k(   23) = (   0.2500000  -0.5000000   0.0000000), wk =   0.0625000
        k(   24) = (  -0.5000000   0.0000000   0.2500000), wk =   0.0625000
        k(   25) = (  -0.5000000   0.0000000   0.5000000), wk =   0.0312500
        k(   26) = (  -0.5000000   0.5000000   0.0000000), wk =   0.0312500
        k(   27) = (  -0.2500000  -0.2500000   0.2500000), wk =   0.0625000
        k(   28) = (  -0.2500000   0.2500000  -0.2500000), wk =   0.0625000
        k(   29) = (   0.2500000  -0.2500000  -0.2500000), wk =   0.0625000
        k(   30) = (  -0.2500000   0.2500000   0.5000000), wk =   0.0625000
        k(   31) = (  -0.5000000  -0.2500000   0.2500000), wk =   0.0625000
        k(   32) = (   0.5000000  -0.2500000  -0.2500000), wk =   0.0625000
        k(   33) = (  -0.2500000  -0.5000000   0.2500000), wk =   0.0625000
        k(   34) = (  -0.2500000   0.5000000  -0.2500000), wk =   0.0625000
        k(   35) = (  -0.5000000   0.2500000   0.5000000), wk =   0.0625000
        k(   36) = (  -0.5000000   0.5000000   0.2500000), wk =   0.0625000

     Dense  grid:   100377 G-vectors     FFT dimensions: (  60,  60,  60)

     Smooth grid:    25413 G-vectors     FFT dimensions: (  40,  40,  40)

     Estimated max dynamical RAM per process >     146.28 MB

     Initial potential from superposition of free atoms

     starting charge       5.9908, renormalised to       6.0000
     Starting wfcs are   10 randomized atomic wfcs
     Checking if some PAW data can be deallocated... 

     total cpu time spent up to now is        0.5 secs

     Self-consistent Calculation

     iteration #  1     ecut=    30.00 Ry     beta= 0.70
     Davidson diagonalization with overlap
     ethr =  1.00E-02,  avg # of iterations =  2.0

     Threshold (ethr) on eigenvalues was too large:
     Diagonalizing with lowered threshold

     Davidson diagonalization with overlap
     ethr =  2.77E-04,  avg # of iterations =  1.4

     total cpu time spent up to now is        1.8 secs

     total energy              =     -29.80384839 Ry
     estimated scf accuracy    <       0.01722202 Ry

     iteration #  2     ecut=    30.00 Ry     beta= 0.70
     Davidson diagonalization with overlap
     ethr =  2.87E-04,  avg # of iterations =  1.0

     total cpu time spent up to now is        2.4 secs

     total energy              =     -29.80463064 Ry
     estimated scf accuracy    <       0.00101953 Ry

     iteration #  3     ecut=    30.00 Ry     beta= 0.70
     Davidson diagonalization with overlap
     ethr =  1.70E-05,  avg # of iterations =  2.3

     total cpu time spent up to now is        3.1 secs

     total energy              =     -29.80474991 Ry
     estimated scf accuracy    <       0.00001384 Ry

     iteration #  4     ecut=    30.00 Ry     beta= 0.70
     Davidson diagonalization with overlap
     c_bands:  1 eigenvalues not converged
     ethr =  2.31E-07,  avg # of iterations =  4.8

     total cpu time spent up to now is        4.0 secs

     total energy              =     -29.80475437 Ry
     estimated scf accuracy    <       0.00000019 Ry

     iteration #  5     ecut=    30.00 Ry     beta= 0.70
     Davidson diagonalization with overlap
     c_bands:  1 eigenvalues not converged
     ethr =  3.16E-09,  avg # of iterations =  3.3

     total cpu time spent up to now is        4.7 secs

     End of self-consistent calculation

          k = 0.0000 0.0000 0.0000 (  3191 PWs)   bands (ev):

   -51.3336 -51.3061  -3.2167   0.6171   0.6201   0.7038   1.3510

          k = 0.0000 0.0000 0.2500 (  3142 PWs)   bands (ev):

   -51.3084 -51.2921  -2.9404  -0.7378   0.8779   0.8810   1.6920

          k = 0.0000 0.0000-0.5000 (  3178 PWs)   bands (ev):

   -51.3187 -51.3098  -2.2446  -1.9614   1.4135   1.4152   2.0191

          k = 0.0000 0.2500 0.2500 (  3171 PWs)   bands (ev):

   -51.3176 -51.3063  -2.6656  -0.5433  -0.4169   1.1438   1.5490

          k = 0.0000 0.2500-0.5000 (  3176 PWs)   bands (ev):

   -51.3204 -51.3070  -1.9759  -1.6827   0.1425   0.5109   1.6447

          k = 0.0000-0.5000-0.5000 (  3168 PWs)   bands (ev):

   -51.3127 -51.3106  -1.2234  -1.1702  -0.8385  -0.7800   2.1219

          k = 0.2500 0.2500 0.2500 (  3161 PWs)   bands (ev):

   -51.3129 -51.3038  -2.3899  -0.2787  -0.2442  -0.1276   1.5792

          k = 0.2500 0.2500-0.5000 (  3180 PWs)   bands (ev):

   -51.3201 -51.3120  -1.7067  -1.4031   0.3403   0.4571   0.6621

          k = 0.2500-0.5000-0.5000 (  3160 PWs)   bands (ev):

   -51.3097 -51.3072  -0.9487  -0.8893  -0.5790  -0.5154   1.1029

          k =-0.5000-0.5000-0.5000 (  3184 PWs)   bands (ev):

   -51.3199 -51.3183  -0.2182  -0.2119   0.0043   0.0120   0.1559

          k = 0.2500 0.0000 0.0000 (  3142 PWs)   bands (ev):

   -51.3083 -51.2922  -2.9384  -0.7643   0.8954   0.9691   1.6128

          k = 0.0000 0.2500 0.0000 (  3142 PWs)   bands (ev):

   -51.3108 -51.2898  -2.9386  -0.7631   0.8925   0.9677   1.6153

          k =-0.5000 0.0000 0.0000 (  3178 PWs)   bands (ev):

   -51.3147 -51.3137  -2.1195  -2.1068   1.6359   1.6576   1.6892

          k = 0.0000-0.5000 0.0000 (  3178 PWs)   bands (ev):

   -51.3170 -51.3114  -2.1411  -2.0843   1.6066   1.6297   1.7006

          k = 0.0000-0.2500 0.2500 (  3171 PWs)   bands (ev):

   -51.3224 -51.3016  -2.6656  -0.5472  -0.4161   1.1426   1.5783

          k = 0.2500 0.0000-0.2500 (  3171 PWs)   bands (ev):

   -51.3193 -51.3046  -2.6655  -0.5456  -0.4167   1.1463   1.5607

          k =-0.2500 0.0000-0.2500 (  3171 PWs)   bands (ev):

   -51.3202 -51.3037  -2.6655  -0.5465  -0.4165   1.1460   1.5674

          k = 0.2500-0.2500 0.0000 (  3171 PWs)   bands (ev):

   -51.3186 -51.3053  -2.6630  -0.5594  -0.4225   1.2137   1.5971

          k =-0.2500-0.2500 0.0000 (  3171 PWs)   bands (ev):

   -51.3171 -51.3068  -2.6629  -0.5596  -0.4226   1.2138   1.5991

          k = 0.2500 0.0000 0.5000 (  3176 PWs)   bands (ev):

   -51.3156 -51.3117  -1.9758  -1.6825   0.1416   0.5101   1.6476

          k =-0.5000-0.2500 0.0000 (  3176 PWs)   bands (ev):

   -51.3142 -51.3131  -1.8463  -1.8331   0.3101   0.3270   1.8767

          k = 0.0000-0.5000 0.2500 (  3176 PWs)   bands (ev):

   -51.3188 -51.3086  -1.8717  -1.8131   0.3022   0.3768   1.8276

          k = 0.2500-0.5000 0.0000 (  3176 PWs)   bands (ev):

   -51.3150 -51.3123  -1.8687  -1.8097   0.2802   0.3558   1.8451

          k =-0.5000 0.0000 0.2500 (  3176 PWs)   bands (ev):

   -51.3148 -51.3126  -1.8494  -1.8363   0.3308   0.3475   1.8755

          k =-0.5000 0.0000 0.5000 (  3168 PWs)   bands (ev):

   -51.3119 -51.3114  -1.2027  -1.1907  -0.8167  -0.8036   2.1542

          k =-0.5000 0.5000 0.0000 (  3168 PWs)   bands (ev):

   -51.3122 -51.3111  -1.1337  -1.1297  -0.8963  -0.8919   2.1815

          k =-0.2500-0.2500 0.2500 (  3161 PWs)   bands (ev):

   -51.3149 -51.3018  -2.3896  -0.2786  -0.2469  -0.1277   1.5914

          k =-0.2500 0.2500-0.2500 (  3161 PWs)   bands (ev):

   -51.3162 -51.3006  -2.3897  -0.2783  -0.2477  -0.1275   1.5943

          k = 0.2500-0.2500-0.2500 (  3161 PWs)   bands (ev):

   -51.3130 -51.3037  -2.3900  -0.2783  -0.2436  -0.1275   1.5749

          k =-0.2500 0.2500 0.5000 (  3180 PWs)   bands (ev):

   -51.3212 -51.3109  -1.7067  -1.4031   0.3411   0.4573   0.6613

          k =-0.5000-0.2500 0.2500 (  3180 PWs)   bands (ev):

   -51.3169 -51.3152  -1.5759  -1.5623   0.4968   0.5014   0.6751

          k = 0.5000-0.2500-0.2500 (  3180 PWs)   bands (ev):

   -51.3168 -51.3153  -1.5764  -1.5627   0.5227   0.5254   0.6448

          k =-0.2500-0.5000 0.2500 (  3180 PWs)   bands (ev):

   -51.3194 -51.3128  -1.5992  -1.5384   0.4983   0.5142   0.6411

          k =-0.2500 0.5000-0.2500 (  3180 PWs)   bands (ev):

   -51.3195 -51.3127  -1.5991  -1.5383   0.4922   0.5098   0.6481

          k =-0.5000 0.2500 0.5000 (  3160 PWs)   bands (ev):

   -51.3087 -51.3082  -0.9260  -0.9127  -0.5550  -0.5408   1.1400

          k =-0.5000 0.5000 0.2500 (  3160 PWs)   bands (ev):

   -51.3096 -51.3074  -0.8508  -0.8457  -0.6492  -0.6437   1.2325

     the Fermi energy is    -1.6192 ev

!    total energy              =     -29.80475457 Ry
     total all-electron energy =       -29.804777 Ry
     estimated scf accuracy    <          3.4E-09 Ry
     smearing contrib. (-TS)   =      -0.00186317 Ry
     internal energy E=F+TS    =     -29.80289140 Ry

     The total energy is F=E-TS. E is the sum of the following terms:
     one-electron contribution =     -26.69426072 Ry
     hartree contribution      =       9.72516222 Ry
     xc contribution           =      -6.73817991 Ry
     ewald contribution        =      -6.23952694 Ry
     one-center paw contrib.   =       0.14391396 Ry

     convergence has been achieved in   5 iterations

     Forces acting on atoms (cartesian axes, Ry/au):

     atom    1 type  1   force =    -0.00008160    0.00040054    0.00215500
     atom    2 type  1   force =     0.00008160   -0.00040054   -0.00215500

     Total force =     0.003102     Total SCF correction =     0.000029


     Computing stress (Cartesian axis) and pressure

          total   stress  (Ry/bohr**3)                   (kbar)     P=      -67.44
  -0.00046113   0.00000001   0.00000003          -67.83        0.00        0.00
   0.00000001  -0.00046072  -0.00000014            0.00      -67.77       -0.02
   0.00000003  -0.00000014  -0.00045350            0.00       -0.02      -66.71


     Writing all to output data dir ./tmp/Li_config_16.save/ :
     XML data file, charge density, pseudopotentials, collected wavefunctions

     init_run     :      0.47s CPU      0.50s WALL (       1 calls)
     electrons    :      3.93s CPU      4.18s WALL (       1 calls)
     forces       :      0.08s CPU      0.09s WALL (       1 calls)
     stress       :      0.40s CPU      0.42s WALL (       1 calls)

     Called by init_run:
     wfcinit      :      0.28s CPU      0.29s WALL (       1 calls)
     potinit      :      0.07s CPU      0.08s WALL (       1 calls)
     hinit0       :      0.07s CPU      0.07s WALL (       1 calls)

     Called by electrons:
     c_bands      :      2.78s CPU      2.96s WALL (       6 calls)
     sum_band     :      0.70s CPU      0.73s WALL (       6 calls)
     v_of_rho     :      0.23s CPU      0.25s WALL (       6 calls)
     newd         :      0.14s CPU      0.16s WALL (       6 calls)
     PAW_pot      :      0.13s CPU      0.13s WALL (       6 calls)
     mix_rho      :      0.02s CPU      0.02s WALL (       6 calls)

     Called by c_bands:
     init_us_2    :      0.10s CPU      0.11s WALL (     540 calls)
     cegterg      :      2.68s CPU      2.86s WALL (     216 calls)

     Called by *egterg:
     cdiaghg      :      0.02s CPU      0.02s WALL (     714 calls)
     h_psi        :      2.52s CPU      2.59s WALL (     786 calls)
     s_psi        :      0.06s CPU      0.09s WALL (     786 calls)
     g_psi        :      0.01s CPU      0.01s WALL (     534 calls)

     Called by h_psi:
     h_psi:calbec :      0.08s CPU      0.11s WALL (     786 calls)
     vloc_psi     :      2.37s CPU      2.38s WALL (     786 calls)
     add_vuspsi   :      0.06s CPU      0.08s WALL (     786 calls)

     General routines
     calbec       :      0.13s CPU      0.18s WALL (    1182 calls)
     fft          :      0.13s CPU      0.13s WALL (      85 calls)
     ffts         :      0.01s CPU      0.01s WALL (      12 calls)
     fftw         :      2.28s CPU      2.29s WALL (    9728 calls)
     interpolate  :      0.01s CPU      0.02s WALL (       6 calls)

     Parallel routines

     PWSCF        :      4.91s CPU      5.25s WALL


   This run was terminated on:   9:11:51  28Jan2025            

=------------------------------------------------------------------------------=
   JOB DONE.
=------------------------------------------------------------------------------=
Note: The following floating-point exceptions are signalling: IEEE_INVALID_FLAG IEEE_DIVIDE_BY_ZERO IEEE_OVERFLOW_FLAG IEEE_UNDERFLOW_FLAG
