[Williams-MacBook-Air.local:93748] shmem: mmap: an error occurred while determining whether or not /var/folders/hy/k_vp1md94sz2dr40dtrs6ln80000gn/T//ompi.Williams-MacBook-Air.501/jf.0/3226075136/sm_segment.Williams-MacBook-Air.501.c04a0000.0 could be created.

     Program PWSCF v.7.3.1 starts on 28Jan2025 at  9:13:27 

     This program is part of the open-source Quantum ESPRESSO suite
     for quantum simulation of materials; please cite
         "P. Giannozzi et al., J. Phys.:Condens. Matter 21 395502 (2009);
         "P. Giannozzi et al., J. Phys.:Condens. Matter 29 465901 (2017);
         "P. Giannozzi et al., J. Chem. Phys. 152 154105 (2020);
          URL http://www.quantum-espresso.org", 
     in publications or presentations arising from this work. More details at
     http://www.quantum-espresso.org/quote

     Parallel version (MPI), running on     1 processors

     MPI processes distributed on     1 nodes
     0 MiB available memory on the printing compute node when the environment starts

     Reading input from Li_config_32.in

     Current dimensions of program PWSCF are:
     Max number of different atomic species (ntypx) = 10
     Max number of k-points (npk) =  40000
     Max angular momentum in pseudopotentials (lmaxx) =  4

     Subspace diagonalization in iterative solution of the eigenvalue problem:
     a serial algorithm will be used


     G-vector sticks info
     --------------------
     sticks:   dense  smooth     PW     G-vecs:    dense   smooth      PW
     Sum        2209     877    277                77365    19549    3287

     Using Slab Decomposition



     bravais-lattice index     =            1
     lattice parameter (alat)  =       9.5870  a.u.
     unit-cell volume          =     881.1552 (a.u.)^3
     number of atoms/cell      =            2
     number of atomic types    =            1
     number of electrons       =         6.00
     number of Kohn-Sham states=            7
     kinetic-energy cutoff     =      30.0000  Ry
     charge density cutoff     =     300.0000  Ry
     scf convergence threshold =      1.0E-08
     mixing beta               =       0.7000
     number of iterations used =            8  plain     mixing
     Exchange-correlation= SLA  PW   PBX  PBC
                           (   1   4   3   4   0   0   0)

     celldm(1)=   9.587031  celldm(2)=   0.000000  celldm(3)=   0.000000
     celldm(4)=   0.000000  celldm(5)=   0.000000  celldm(6)=   0.000000

     crystal axes: (cart. coord. in units of alat)
               a(1) = (   1.000000   0.000000   0.000000 )  
               a(2) = (   0.000000   1.000000   0.000000 )  
               a(3) = (   0.000000   0.000000   1.000000 )  

     reciprocal axes: (cart. coord. in units 2 pi/alat)
               b(1) = (  1.000000  0.000000  0.000000 )  
               b(2) = (  0.000000  1.000000  0.000000 )  
               b(3) = (  0.000000  0.000000  1.000000 )  


     PseudoPot. # 1 for Li read from file:
     ../../pseudopotentials/Li.pbe-s-kjpaw_psl.1.0.0.UPF
     MD5 check sum: d3662511b3860c829f7212fdb89d6128
     Pseudo is Projector augmented-wave, Zval =  3.0
     Generated using &quot;atomic&quot; code by A. Dal Corso  v.6.3
     Shape of augmentation charge: PSQ
     Using radial grid of 1017 points,  4 beta functions with: 
                l(1) =   0
                l(2) =   0
                l(3) =   1
                l(4) =   1
     Q(r) pseudized with 0 coefficients 


     atomic species   valence    mass     pseudopotential
     Li                3.00     6.94000     Li( 1.00)

     No symmetry found



   Cartesian axes

     site n.     atom                  positions (alat units)
         1        Li     tau(   1) = (   0.0035100   0.1127760   0.0091140  )
         2        Li     tau(   2) = (   0.4021690   0.5458580   0.6044240  )

     number of k points=    36  Gaussian smearing, width (Ry)=  0.0100
                       cart. coord. in units 2pi/alat
        k(    1) = (   0.0000000   0.0000000   0.0000000), wk =   0.0312500
        k(    2) = (   0.0000000   0.0000000   0.2500000), wk =   0.0625000
        k(    3) = (   0.0000000   0.0000000  -0.5000000), wk =   0.0312500
        k(    4) = (   0.0000000   0.2500000   0.2500000), wk =   0.0625000
        k(    5) = (   0.0000000   0.2500000  -0.5000000), wk =   0.0625000
        k(    6) = (   0.0000000  -0.5000000  -0.5000000), wk =   0.0312500
        k(    7) = (   0.2500000   0.2500000   0.2500000), wk =   0.0625000
        k(    8) = (   0.2500000   0.2500000  -0.5000000), wk =   0.0625000
        k(    9) = (   0.2500000  -0.5000000  -0.5000000), wk =   0.0625000
        k(   10) = (  -0.5000000  -0.5000000  -0.5000000), wk =   0.0312500
        k(   11) = (   0.2500000   0.0000000   0.0000000), wk =   0.0625000
        k(   12) = (   0.0000000   0.2500000   0.0000000), wk =   0.0625000
        k(   13) = (  -0.5000000   0.0000000   0.0000000), wk =   0.0312500
        k(   14) = (   0.0000000  -0.5000000   0.0000000), wk =   0.0312500
        k(   15) = (   0.0000000  -0.2500000   0.2500000), wk =   0.0625000
        k(   16) = (   0.2500000   0.0000000  -0.2500000), wk =   0.0625000
        k(   17) = (  -0.2500000   0.0000000  -0.2500000), wk =   0.0625000
        k(   18) = (   0.2500000  -0.2500000   0.0000000), wk =   0.0625000
        k(   19) = (  -0.2500000  -0.2500000   0.0000000), wk =   0.0625000
        k(   20) = (   0.2500000   0.0000000   0.5000000), wk =   0.0625000
        k(   21) = (  -0.5000000  -0.2500000   0.0000000), wk =   0.0625000
        k(   22) = (   0.0000000  -0.5000000   0.2500000), wk =   0.0625000
        k(   23) = (   0.2500000  -0.5000000   0.0000000), wk =   0.0625000
        k(   24) = (  -0.5000000   0.0000000   0.2500000), wk =   0.0625000
        k(   25) = (  -0.5000000   0.0000000   0.5000000), wk =   0.0312500
        k(   26) = (  -0.5000000   0.5000000   0.0000000), wk =   0.0312500
        k(   27) = (  -0.2500000  -0.2500000   0.2500000), wk =   0.0625000
        k(   28) = (  -0.2500000   0.2500000  -0.2500000), wk =   0.0625000
        k(   29) = (   0.2500000  -0.2500000  -0.2500000), wk =   0.0625000
        k(   30) = (  -0.2500000   0.2500000   0.5000000), wk =   0.0625000
        k(   31) = (  -0.5000000  -0.2500000   0.2500000), wk =   0.0625000
        k(   32) = (   0.5000000  -0.2500000  -0.2500000), wk =   0.0625000
        k(   33) = (  -0.2500000  -0.5000000   0.2500000), wk =   0.0625000
        k(   34) = (  -0.2500000   0.5000000  -0.2500000), wk =   0.0625000
        k(   35) = (  -0.5000000   0.2500000   0.5000000), wk =   0.0625000
        k(   36) = (  -0.5000000   0.5000000   0.2500000), wk =   0.0625000

     Dense  grid:    77365 G-vectors     FFT dimensions: (  54,  54,  54)

     Smooth grid:    19549 G-vectors     FFT dimensions: (  36,  36,  36)

     Estimated max dynamical RAM per process >     112.22 MB

     Initial potential from superposition of free atoms

     starting charge       5.9908, renormalised to       6.0000
     Starting wfcs are   10 randomized atomic wfcs
     Checking if some PAW data can be deallocated... 

     total cpu time spent up to now is        0.4 secs

     Self-consistent Calculation

     iteration #  1     ecut=    30.00 Ry     beta= 0.70
     Davidson diagonalization with overlap
     ethr =  1.00E-02,  avg # of iterations =  2.1

     Threshold (ethr) on eigenvalues was too large:
     Diagonalizing with lowered threshold

     Davidson diagonalization with overlap
     ethr =  2.67E-04,  avg # of iterations =  1.5

     total cpu time spent up to now is        1.5 secs

     total energy              =     -29.83809197 Ry
     estimated scf accuracy    <       0.01667986 Ry

     iteration #  2     ecut=    30.00 Ry     beta= 0.70
     Davidson diagonalization with overlap
     ethr =  2.78E-04,  avg # of iterations =  1.0

     total cpu time spent up to now is        1.9 secs

     total energy              =     -29.83876099 Ry
     estimated scf accuracy    <       0.00083484 Ry

     iteration #  3     ecut=    30.00 Ry     beta= 0.70
     Davidson diagonalization with overlap
     ethr =  1.39E-05,  avg # of iterations =  3.9

     total cpu time spent up to now is        2.6 secs

     total energy              =     -29.83885750 Ry
     estimated scf accuracy    <       0.00000924 Ry

     iteration #  4     ecut=    30.00 Ry     beta= 0.70
     Davidson diagonalization with overlap
     ethr =  1.54E-07,  avg # of iterations =  3.9

     total cpu time spent up to now is        3.2 secs

     total energy              =     -29.83885984 Ry
     estimated scf accuracy    <       0.00000025 Ry

     iteration #  5     ecut=    30.00 Ry     beta= 0.70
     Davidson diagonalization with overlap
     ethr =  4.14E-09,  avg # of iterations =  2.2

     total cpu time spent up to now is        3.7 secs

     End of self-consistent calculation

          k = 0.0000 0.0000 0.0000 (  2469 PWs)   bands (ev):

   -50.6192 -50.6120  -3.2499   1.2057   1.3105   1.3709   2.5546

          k = 0.0000 0.0000 0.2500 (  2441 PWs)   bands (ev):

   -50.6018 -50.5991  -2.9286  -0.3636   1.5338   1.6488   2.7149

          k = 0.0000 0.0000-0.5000 (  2416 PWs)   bands (ev):

   -50.5893 -50.5858  -2.0935  -1.8149   2.1039   2.2611   2.7746

          k = 0.0000 0.2500 0.2500 (  2452 PWs)   bands (ev):

   -50.6127 -50.5994  -2.6090  -0.2473   0.1570   1.9178   2.5334

          k = 0.0000 0.2500-0.5000 (  2458 PWs)   bands (ev):

   -50.6104 -50.6085  -1.7908  -1.4965   0.7268   1.1859   2.5119

          k = 0.0000-0.5000-0.5000 (  2464 PWs)   bands (ev):

   -50.6157 -50.6118  -1.0462  -0.9260  -0.3823  -0.2089   3.0071

          k = 0.2500 0.2500 0.2500 (  2455 PWs)   bands (ev):

   -50.6106 -50.6063  -2.2912   0.0802   0.1131   0.6423   2.6536

          k = 0.2500 0.2500-0.5000 (  2422 PWs)   bands (ev):

   -50.5949 -50.5884  -1.4876  -1.1763   0.8407   1.2589   1.4699

          k = 0.2500-0.5000-0.5000 (  2424 PWs)   bands (ev):

   -50.5958 -50.5917  -0.7393  -0.5894  -0.1191   0.0895   1.8597

          k =-0.5000-0.5000-0.5000 (  2440 PWs)   bands (ev):

   -50.6112 -50.5962  -0.1024   0.1215   0.2725   0.7718   1.0120

          k = 0.2500 0.0000 0.0000 (  2441 PWs)   bands (ev):

   -50.6030 -50.5979  -2.9287  -0.3594   1.5300   1.6332   2.7374

          k = 0.0000 0.2500 0.0000 (  2441 PWs)   bands (ev):

   -50.6071 -50.5939  -2.9281  -0.3809   1.5716   1.6889   2.6775

          k =-0.5000 0.0000 0.0000 (  2416 PWs)   bands (ev):

   -50.5895 -50.5856  -2.1006  -1.8048   2.0880   2.2361   2.8086

          k = 0.0000-0.5000 0.0000 (  2416 PWs)   bands (ev):

   -50.6011 -50.5742  -2.0574  -1.8631   2.1730   2.3836   2.6317

          k = 0.0000-0.2500 0.2500 (  2452 PWs)   bands (ev):

   -50.6140 -50.5982  -2.6104  -0.2319   0.1607   1.9095   2.3964

          k = 0.2500 0.0000-0.2500 (  2452 PWs)   bands (ev):

   -50.6074 -50.6047  -2.6120  -0.2137   0.1615   1.8454   2.3642

          k =-0.2500 0.0000-0.2500 (  2452 PWs)   bands (ev):

   -50.6095 -50.6026  -2.6091  -0.2321   0.1537   1.8455   2.5421

          k = 0.2500-0.2500 0.0000 (  2452 PWs)   bands (ev):

   -50.6132 -50.5989  -2.6091  -0.2443   0.1564   1.9040   2.5311

          k =-0.2500-0.2500 0.0000 (  2452 PWs)   bands (ev):

   -50.6134 -50.5988  -2.6107  -0.2287   0.1609   1.8971   2.3907

          k = 0.2500 0.0000 0.5000 (  2458 PWs)   bands (ev):

   -50.6140 -50.6049  -1.7910  -1.4980   0.7441   1.1999   2.4473

          k =-0.5000-0.2500 0.0000 (  2458 PWs)   bands (ev):

   -50.6111 -50.6078  -1.7983  -1.4857   0.7142   1.2006   2.4874

          k = 0.0000-0.5000 0.2500 (  2458 PWs)   bands (ev):

   -50.6163 -50.6027  -1.7544  -1.5482   0.8016   1.1262   2.5721

          k = 0.2500-0.5000 0.0000 (  2458 PWs)   bands (ev):

   -50.6166 -50.6023  -1.7544  -1.5484   0.8047   1.1289   2.5622

          k =-0.5000 0.0000 0.2500 (  2458 PWs)   bands (ev):

   -50.6136 -50.6053  -1.7983  -1.4869   0.7283   1.2120   2.4335

          k =-0.5000 0.0000 0.5000 (  2464 PWs)   bands (ev):

   -50.6189 -50.6086  -1.0756  -0.9057  -0.4027  -0.1522   2.9005

          k =-0.5000 0.5000 0.0000 (  2464 PWs)   bands (ev):

   -50.6153 -50.6122  -1.0507  -0.9251  -0.3825  -0.2000   2.9903

          k =-0.2500-0.2500 0.2500 (  2455 PWs)   bands (ev):

   -50.6107 -50.6061  -2.2969   0.0970   0.1299   0.6610   2.4398

          k =-0.2500 0.2500-0.2500 (  2455 PWs)   bands (ev):

   -50.6121 -50.6048  -2.2910   0.0849   0.1078   0.6417   2.6588

          k = 0.2500-0.2500-0.2500 (  2455 PWs)   bands (ev):

   -50.6167 -50.6002  -2.2921   0.0674   0.1301   0.6452   2.6182

          k =-0.2500 0.2500 0.5000 (  2422 PWs)   bands (ev):

   -50.5922 -50.5911  -1.4832  -1.1721   0.7704   1.1859   1.5495

          k =-0.5000-0.2500 0.2500 (  2422 PWs)   bands (ev):

   -50.5951 -50.5882  -1.4950  -1.1643   0.8204   1.2553   1.4735

          k = 0.5000-0.2500-0.2500 (  2422 PWs)   bands (ev):

   -50.5918 -50.5915  -1.4908  -1.1603   0.7550   1.1912   1.5474

          k =-0.2500-0.5000 0.2500 (  2422 PWs)   bands (ev):

   -50.6000 -50.5833  -1.4503  -1.2322   0.9451   1.2893   1.4401

          k =-0.2500 0.5000-0.2500 (  2422 PWs)   bands (ev):

   -50.5942 -50.5891  -1.4449  -1.2263   0.8386   1.1460   1.5628

          k =-0.5000 0.2500 0.5000 (  2424 PWs)   bands (ev):

   -50.5985 -50.5889  -0.7725  -0.5587  -0.1469   0.1556   1.7735

          k =-0.5000 0.5000 0.2500 (  2424 PWs)   bands (ev):

   -50.5956 -50.5919  -0.7443  -0.5877  -0.1193   0.0999   1.8451

     the Fermi energy is    -1.4134 ev

!    total energy              =     -29.83886000 Ry
     total all-electron energy =       -29.838883 Ry
     estimated scf accuracy    <          2.5E-09 Ry
     smearing contrib. (-TS)   =      -0.00157101 Ry
     internal energy E=F+TS    =     -29.83728899 Ry

     The total energy is F=E-TS. E is the sum of the following terms:
     one-electron contribution =     -25.96718307 Ry
     hartree contribution      =       9.50420237 Ry
     xc contribution           =      -6.78329078 Ry
     ewald contribution        =      -6.73505276 Ry
     one-center paw contrib.   =       0.14403525 Ry

     convergence has been achieved in   5 iterations

     Forces acting on atoms (cartesian axes, Ry/au):

     atom    1 type  1   force =    -0.00009887   -0.00026327    0.00012718
     atom    2 type  1   force =     0.00009887    0.00026327   -0.00012718

     Total force =     0.000436     Total SCF correction =     0.000032


     Computing stress (Cartesian axis) and pressure

          total   stress  (Ry/bohr**3)                   (kbar)     P=      -85.80
  -0.00058119   0.00000359  -0.00000453          -85.50        0.53       -0.67
   0.00000359  -0.00058644  -0.00000349            0.53      -86.27       -0.51
  -0.00000453  -0.00000349  -0.00058207           -0.67       -0.51      -85.63


     Writing all to output data dir ./tmp/Li_config_32.save/ :
     XML data file, charge density, pseudopotentials, collected wavefunctions

     init_run     :      0.38s CPU      0.40s WALL (       1 calls)
     electrons    :      3.08s CPU      3.24s WALL (       1 calls)
     forces       :      0.06s CPU      0.06s WALL (       1 calls)
     stress       :      0.31s CPU      0.33s WALL (       1 calls)

     Called by init_run:
     wfcinit      :      0.22s CPU      0.23s WALL (       1 calls)
     potinit      :      0.06s CPU      0.06s WALL (       1 calls)
     hinit0       :      0.07s CPU      0.07s WALL (       1 calls)

     Called by electrons:
     c_bands      :      2.18s CPU      2.29s WALL (       6 calls)
     sum_band     :      0.54s CPU      0.58s WALL (       6 calls)
     v_of_rho     :      0.16s CPU      0.17s WALL (       6 calls)
     newd         :      0.11s CPU      0.13s WALL (       6 calls)
     PAW_pot      :      0.13s CPU      0.13s WALL (       6 calls)
     mix_rho      :      0.01s CPU      0.01s WALL (       6 calls)

     Called by c_bands:
     init_us_2    :      0.08s CPU      0.09s WALL (     540 calls)
     cegterg      :      2.10s CPU      2.20s WALL (     216 calls)

     Called by *egterg:
     cdiaghg      :      0.02s CPU      0.02s WALL (     710 calls)
     h_psi        :      1.97s CPU      2.02s WALL (     782 calls)
     s_psi        :      0.05s CPU      0.06s WALL (     782 calls)
     g_psi        :      0.01s CPU      0.01s WALL (     530 calls)

     Called by h_psi:
     h_psi:calbec :      0.07s CPU      0.08s WALL (     782 calls)
     vloc_psi     :      1.85s CPU      1.86s WALL (     782 calls)
     add_vuspsi   :      0.05s CPU      0.06s WALL (     782 calls)

     General routines
     calbec       :      0.11s CPU      0.13s WALL (    1178 calls)
     fft          :      0.08s CPU      0.08s WALL (      85 calls)
     ffts         :      0.01s CPU      0.01s WALL (      12 calls)
     fftw         :      1.80s CPU      1.81s WALL (    9714 calls)
     interpolate  :      0.01s CPU      0.01s WALL (       6 calls)

     Parallel routines

     PWSCF        :      3.87s CPU      4.09s WALL


   This run was terminated on:   9:13:31  28Jan2025            

=------------------------------------------------------------------------------=
   JOB DONE.
=------------------------------------------------------------------------------=
Note: The following floating-point exceptions are signalling: IEEE_INVALID_FLAG IEEE_DIVIDE_BY_ZERO IEEE_OVERFLOW_FLAG IEEE_UNDERFLOW_FLAG
