[Williams-MacBook-Air.local:93624] shmem: mmap: an error occurred while determining whether or not /var/folders/hy/k_vp1md94sz2dr40dtrs6ln80000gn/T//ompi.Williams-MacBook-Air.501/jf.0/3717201920/sm_segment.Williams-MacBook-Air.501.dd900000.0 could be created.

     Program PWSCF v.7.3.1 starts on 28Jan2025 at  9:11:39 

     This program is part of the open-source Quantum ESPRESSO suite
     for quantum simulation of materials; please cite
         "P. Giannozzi et al., J. Phys.:Condens. Matter 21 395502 (2009);
         "P. Giannozzi et al., J. Phys.:Condens. Matter 29 465901 (2017);
         "P. Giannozzi et al., J. Chem. Phys. 152 154105 (2020);
          URL http://www.quantum-espresso.org", 
     in publications or presentations arising from this work. More details at
     http://www.quantum-espresso.org/quote

     Parallel version (MPI), running on     1 processors

     MPI processes distributed on     1 nodes
     0 MiB available memory on the printing compute node when the environment starts

     Reading input from Li_config_14.in

     Current dimensions of program PWSCF are:
     Max number of different atomic species (ntypx) = 10
     Max number of k-points (npk) =  40000
     Max angular momentum in pseudopotentials (lmaxx) =  4

     Subspace diagonalization in iterative solution of the eigenvalue problem:
     a serial algorithm will be used


     G-vector sticks info
     --------------------
     sticks:   dense  smooth     PW     G-vecs:    dense   smooth      PW
     Sum        1925     777    241                63461    16135    2777

     Using Slab Decomposition



     bravais-lattice index     =            1
     lattice parameter (alat)  =       8.9800  a.u.
     unit-cell volume          =     724.1481 (a.u.)^3
     number of atoms/cell      =            2
     number of atomic types    =            1
     number of electrons       =         6.00
     number of Kohn-Sham states=            7
     kinetic-energy cutoff     =      30.0000  Ry
     charge density cutoff     =     300.0000  Ry
     scf convergence threshold =      1.0E-08
     mixing beta               =       0.7000
     number of iterations used =            8  plain     mixing
     Exchange-correlation= SLA  PW   PBX  PBC
                           (   1   4   3   4   0   0   0)

     celldm(1)=   8.979989  celldm(2)=   0.000000  celldm(3)=   0.000000
     celldm(4)=   0.000000  celldm(5)=   0.000000  celldm(6)=   0.000000

     crystal axes: (cart. coord. in units of alat)
               a(1) = (   1.000000   0.000000   0.000000 )  
               a(2) = (   0.000000   1.000000   0.000000 )  
               a(3) = (   0.000000   0.000000   1.000000 )  

     reciprocal axes: (cart. coord. in units 2 pi/alat)
               b(1) = (  1.000000  0.000000  0.000000 )  
               b(2) = (  0.000000  1.000000  0.000000 )  
               b(3) = (  0.000000  0.000000  1.000000 )  


     PseudoPot. # 1 for Li read from file:
     ../../pseudopotentials/Li.pbe-s-kjpaw_psl.1.0.0.UPF
     MD5 check sum: d3662511b3860c829f7212fdb89d6128
     Pseudo is Projector augmented-wave, Zval =  3.0
     Generated using &quot;atomic&quot; code by A. Dal Corso  v.6.3
     Shape of augmentation charge: PSQ
     Using radial grid of 1017 points,  4 beta functions with: 
                l(1) =   0
                l(2) =   0
                l(3) =   1
                l(4) =   1
     Q(r) pseudized with 0 coefficients 


     atomic species   valence    mass     pseudopotential
     Li                3.00     6.94000     Li( 1.00)

     No symmetry found



   Cartesian axes

     site n.     atom                  positions (alat units)
         1        Li     tau(   1) = (   0.9983470   0.1274330   0.0830090  )
         2        Li     tau(   2) = (   0.6222920   0.4442750   0.3679820  )

     number of k points=    36  Gaussian smearing, width (Ry)=  0.0100
                       cart. coord. in units 2pi/alat
        k(    1) = (   0.0000000   0.0000000   0.0000000), wk =   0.0312500
        k(    2) = (   0.0000000   0.0000000   0.2500000), wk =   0.0625000
        k(    3) = (   0.0000000   0.0000000  -0.5000000), wk =   0.0312500
        k(    4) = (   0.0000000   0.2500000   0.2500000), wk =   0.0625000
        k(    5) = (   0.0000000   0.2500000  -0.5000000), wk =   0.0625000
        k(    6) = (   0.0000000  -0.5000000  -0.5000000), wk =   0.0312500
        k(    7) = (   0.2500000   0.2500000   0.2500000), wk =   0.0625000
        k(    8) = (   0.2500000   0.2500000  -0.5000000), wk =   0.0625000
        k(    9) = (   0.2500000  -0.5000000  -0.5000000), wk =   0.0625000
        k(   10) = (  -0.5000000  -0.5000000  -0.5000000), wk =   0.0312500
        k(   11) = (   0.2500000   0.0000000   0.0000000), wk =   0.0625000
        k(   12) = (   0.0000000   0.2500000   0.0000000), wk =   0.0625000
        k(   13) = (  -0.5000000   0.0000000   0.0000000), wk =   0.0312500
        k(   14) = (   0.0000000  -0.5000000   0.0000000), wk =   0.0312500
        k(   15) = (   0.0000000  -0.2500000   0.2500000), wk =   0.0625000
        k(   16) = (   0.2500000   0.0000000  -0.2500000), wk =   0.0625000
        k(   17) = (  -0.2500000   0.0000000  -0.2500000), wk =   0.0625000
        k(   18) = (   0.2500000  -0.2500000   0.0000000), wk =   0.0625000
        k(   19) = (  -0.2500000  -0.2500000   0.0000000), wk =   0.0625000
        k(   20) = (   0.2500000   0.0000000   0.5000000), wk =   0.0625000
        k(   21) = (  -0.5000000  -0.2500000   0.0000000), wk =   0.0625000
        k(   22) = (   0.0000000  -0.5000000   0.2500000), wk =   0.0625000
        k(   23) = (   0.2500000  -0.5000000   0.0000000), wk =   0.0625000
        k(   24) = (  -0.5000000   0.0000000   0.2500000), wk =   0.0625000
        k(   25) = (  -0.5000000   0.0000000   0.5000000), wk =   0.0312500
        k(   26) = (  -0.5000000   0.5000000   0.0000000), wk =   0.0312500
        k(   27) = (  -0.2500000  -0.2500000   0.2500000), wk =   0.0625000
        k(   28) = (  -0.2500000   0.2500000  -0.2500000), wk =   0.0625000
        k(   29) = (   0.2500000  -0.2500000  -0.2500000), wk =   0.0625000
        k(   30) = (  -0.2500000   0.2500000   0.5000000), wk =   0.0625000
        k(   31) = (  -0.5000000  -0.2500000   0.2500000), wk =   0.0625000
        k(   32) = (   0.5000000  -0.2500000  -0.2500000), wk =   0.0625000
        k(   33) = (  -0.2500000  -0.5000000   0.2500000), wk =   0.0625000
        k(   34) = (  -0.2500000   0.5000000  -0.2500000), wk =   0.0625000
        k(   35) = (  -0.5000000   0.2500000   0.5000000), wk =   0.0625000
        k(   36) = (  -0.5000000   0.5000000   0.2500000), wk =   0.0625000

     Dense  grid:    63461 G-vectors     FFT dimensions: (  50,  50,  50)

     Smooth grid:    16135 G-vectors     FFT dimensions: (  32,  32,  32)

     Estimated max dynamical RAM per process >      91.85 MB

     Initial potential from superposition of free atoms

     starting charge       5.9908, renormalised to       6.0000
     Starting wfcs are   10 randomized atomic wfcs
     Checking if some PAW data can be deallocated... 

     total cpu time spent up to now is        0.3 secs

     Self-consistent Calculation

     iteration #  1     ecut=    30.00 Ry     beta= 0.70
     Davidson diagonalization with overlap
     ethr =  1.00E-02,  avg # of iterations =  2.4

     Threshold (ethr) on eigenvalues was too large:
     Diagonalizing with lowered threshold

     Davidson diagonalization with overlap
     ethr =  2.89E-04,  avg # of iterations =  1.9

     total cpu time spent up to now is        1.1 secs

     total energy              =     -29.84647078 Ry
     estimated scf accuracy    <       0.01818756 Ry

     iteration #  2     ecut=    30.00 Ry     beta= 0.70
     Davidson diagonalization with overlap
     ethr =  3.03E-04,  avg # of iterations =  1.0

     total cpu time spent up to now is        1.4 secs

     total energy              =     -29.84710703 Ry
     estimated scf accuracy    <       0.00081596 Ry

     iteration #  3     ecut=    30.00 Ry     beta= 0.70
     Davidson diagonalization with overlap
     ethr =  1.36E-05,  avg # of iterations =  5.1

     total cpu time spent up to now is        1.9 secs

     total energy              =     -29.84719768 Ry
     estimated scf accuracy    <       0.00000825 Ry

     iteration #  4     ecut=    30.00 Ry     beta= 0.70
     Davidson diagonalization with overlap
     c_bands:  1 eigenvalues not converged
     ethr =  1.38E-07,  avg # of iterations =  3.9

     total cpu time spent up to now is        2.4 secs

     total energy              =     -29.84720000 Ry
     estimated scf accuracy    <       0.00000031 Ry

     iteration #  5     ecut=    30.00 Ry     beta= 0.70
     Davidson diagonalization with overlap
     ethr =  5.18E-09,  avg # of iterations =  2.4

     total cpu time spent up to now is        2.7 secs

     End of self-consistent calculation

          k = 0.0000 0.0000 0.0000 (  2007 PWs)   bands (ev):

   -49.9719 -49.9572  -3.2535   1.5822   2.0414   2.3169   2.4937

          k = 0.0000 0.0000 0.2500 (  2000 PWs)   bands (ev):

   -49.9721 -49.9503  -2.9023  -0.0233   1.8819   2.3665   3.0087

          k = 0.0000 0.0000-0.5000 (  2040 PWs)   bands (ev):

   -49.9989 -49.9720  -2.0478  -1.5794   2.2372   2.8267   3.4452

          k = 0.0000 0.2500 0.2500 (  2003 PWs)   bands (ev):

   -49.9709 -49.9527  -2.5581   0.0504   0.6163   2.1971   3.0636

          k = 0.0000 0.2500-0.5000 (  1998 PWs)   bands (ev):

   -49.9638 -49.9520  -1.7276  -1.2273   0.9702   2.0061   2.7293

          k = 0.0000-0.5000-0.5000 (  2000 PWs)   bands (ev):

   -49.9662 -49.9523  -0.9806  -0.7513  -0.1540   0.6165   3.0685

          k = 0.2500 0.2500 0.2500 (  2022 PWs)   bands (ev):

   -49.9800 -49.9658  -2.2161   0.2285   0.4357   1.2559   3.4700

          k = 0.2500 0.2500-0.5000 (  2012 PWs)   bands (ev):

   -49.9766 -49.9558  -1.4200  -0.8631   0.7492   1.6957   2.4428

          k = 0.2500-0.5000-0.5000 (  2016 PWs)   bands (ev):

   -49.9781 -49.9585  -0.7242  -0.3739   0.0526   0.9716   2.1268

          k =-0.5000-0.5000-0.5000 (  2008 PWs)   bands (ev):

   -49.9727 -49.9503  -0.2133   0.0666   0.4272   1.4519   1.6598

          k = 0.2500 0.0000 0.0000 (  2000 PWs)   bands (ev):

   -49.9712 -49.9512  -2.9051  -0.1295   2.1535   2.6395   2.8327

          k = 0.0000 0.2500 0.0000 (  2000 PWs)   bands (ev):

   -49.9691 -49.9533  -2.9030  -0.0562   1.9147   2.5359   2.8645

          k =-0.5000 0.0000 0.0000 (  2040 PWs)   bands (ev):

   -49.9925 -49.9783  -1.9940  -1.7086   2.4885   3.2068   3.2378

          k = 0.0000-0.5000 0.0000 (  2040 PWs)   bands (ev):

   -49.9875 -49.9833  -2.0294  -1.6221   2.2985   3.0004   3.2950

          k = 0.0000-0.2500 0.2500 (  2003 PWs)   bands (ev):

   -49.9674 -49.9561  -2.5538   0.0723   0.5220   2.2355   3.4003

          k = 0.2500 0.0000-0.2500 (  2003 PWs)   bands (ev):

   -49.9754 -49.9482  -2.5608  -0.0015   0.6067   2.4239   3.0567

          k =-0.2500 0.0000-0.2500 (  2003 PWs)   bands (ev):

   -49.9724 -49.9512  -2.5567  -0.0159   0.5575   2.5259   3.2966

          k = 0.2500-0.2500 0.0000 (  2003 PWs)   bands (ev):

   -49.9726 -49.9510  -2.5617  -0.0277   0.6156   2.5061   3.0665

          k =-0.2500-0.2500 0.0000 (  2003 PWs)   bands (ev):

   -49.9720 -49.9515  -2.5574  -0.0571   0.5792   2.6635   3.2162

          k = 0.2500 0.0000 0.5000 (  1998 PWs)   bands (ev):

   -49.9672 -49.9487  -1.7355  -1.2261   0.9022   1.9593   3.0791

          k =-0.5000-0.2500 0.0000 (  1998 PWs)   bands (ev):

   -49.9665 -49.9494  -1.6764  -1.3713   1.1311   1.7826   3.2780

          k = 0.0000-0.5000 0.2500 (  1998 PWs)   bands (ev):

   -49.9602 -49.9557  -1.7071  -1.2758   1.0469   1.9614   2.7550

          k = 0.2500-0.5000 0.0000 (  1998 PWs)   bands (ev):

   -49.9674 -49.9485  -1.7188  -1.2759   0.9590   1.8929   3.2785

          k =-0.5000 0.0000 0.2500 (  1998 PWs)   bands (ev):

   -49.9709 -49.9450  -1.6732  -1.3701   1.1523   1.8032   3.1198

          k =-0.5000 0.0000 0.5000 (  2000 PWs)   bands (ev):

   -49.9641 -49.9544  -0.9892  -0.8130  -0.0553   0.4894   3.4503

          k =-0.5000 0.5000 0.0000 (  2000 PWs)   bands (ev):

   -49.9691 -49.9493  -0.9981  -0.8318  -0.0277   0.4516   3.6350

          k =-0.2500-0.2500 0.2500 (  2022 PWs)   bands (ev):

   -49.9883 -49.9576  -2.2142   0.2514   0.4204   1.2264   3.5100

          k =-0.2500 0.2500-0.2500 (  2022 PWs)   bands (ev):

   -49.9818 -49.9639  -2.2137   0.2817   0.3960   1.2187   3.4980

          k = 0.2500-0.2500-0.2500 (  2022 PWs)   bands (ev):

   -49.9817 -49.9640  -2.2295   0.2966   0.4296   1.3536   2.9183

          k =-0.2500 0.2500 0.5000 (  2012 PWs)   bands (ev):

   -49.9739 -49.9585  -1.4329  -0.8792   0.8854   1.7669   2.2639

          k =-0.5000-0.2500 0.2500 (  2012 PWs)   bands (ev):

   -49.9826 -49.9500  -1.3554  -1.0231   0.9770   1.5598   2.5323

          k = 0.5000-0.2500-0.2500 (  2012 PWs)   bands (ev):

   -49.9732 -49.9591  -1.3729  -1.0478   1.1970   1.8244   2.2020

          k =-0.2500-0.5000 0.2500 (  2012 PWs)   bands (ev):

   -49.9769 -49.9555  -1.4130  -0.9384   0.9830   1.7602   2.2653

          k =-0.2500 0.5000-0.2500 (  2012 PWs)   bands (ev):

   -49.9737 -49.9588  -1.3991  -0.9201   0.8317   1.6515   2.4823

          k =-0.5000 0.2500 0.5000 (  2016 PWs)   bands (ev):

   -49.9757 -49.9609  -0.7150  -0.4714   0.1877   0.8185   2.3011

          k =-0.5000 0.5000 0.2500 (  2016 PWs)   bands (ev):

   -49.9786 -49.9581  -0.7156  -0.4944   0.2188   0.7691   2.3765

     the Fermi energy is    -1.2477 ev

!    total energy              =     -29.84720021 Ry
     total all-electron energy =       -29.847223 Ry
     estimated scf accuracy    <          2.9E-09 Ry
     smearing contrib. (-TS)   =      -0.00120330 Ry
     internal energy E=F+TS    =     -29.84599691 Ry

     The total energy is F=E-TS. E is the sum of the following terms:
     one-electron contribution =     -25.96006623 Ry
     hartree contribution      =       9.63726550 Ry
     xc contribution           =      -6.84115593 Ry
     ewald contribution        =      -6.82673634 Ry
     one-center paw contrib.   =       0.14469609 Ry

     convergence has been achieved in   5 iterations

     Forces acting on atoms (cartesian axes, Ry/au):

     atom    1 type  1   force =     0.01334468   -0.01365561   -0.01285013
     atom    2 type  1   force =    -0.01334468    0.01365561    0.01285013

     Total force =     0.032548     Total SCF correction =     0.000021


     Computing stress (Cartesian axis) and pressure

          total   stress  (Ry/bohr**3)                   (kbar)     P=      -93.95
  -0.00062809  -0.00004806  -0.00004582          -92.40       -7.07       -6.74
  -0.00004806  -0.00064146   0.00004740           -7.07      -94.36        6.97
  -0.00004582   0.00004740  -0.00064641           -6.74        6.97      -95.09


     Writing all to output data dir ./tmp/Li_config_14.save/ :
     XML data file, charge density, pseudopotentials, collected wavefunctions

     init_run     :      0.30s CPU      0.32s WALL (       1 calls)
     electrons    :      2.27s CPU      2.40s WALL (       1 calls)
     forces       :      0.05s CPU      0.05s WALL (       1 calls)
     stress       :      0.26s CPU      0.27s WALL (       1 calls)

     Called by init_run:
     wfcinit      :      0.15s CPU      0.16s WALL (       1 calls)
     potinit      :      0.05s CPU      0.06s WALL (       1 calls)
     hinit0       :      0.07s CPU      0.07s WALL (       1 calls)

     Called by electrons:
     c_bands      :      1.57s CPU      1.67s WALL (       6 calls)
     sum_band     :      0.39s CPU      0.40s WALL (       6 calls)
     v_of_rho     :      0.13s CPU      0.14s WALL (       6 calls)
     newd         :      0.09s CPU      0.10s WALL (       6 calls)
     PAW_pot      :      0.13s CPU      0.13s WALL (       6 calls)
     mix_rho      :      0.01s CPU      0.01s WALL (       6 calls)

     Called by c_bands:
     init_us_2    :      0.06s CPU      0.07s WALL (     540 calls)
     cegterg      :      1.51s CPU      1.61s WALL (     216 calls)

     Called by *egterg:
     cdiaghg      :      0.02s CPU      0.02s WALL (     780 calls)
     h_psi        :      1.35s CPU      1.39s WALL (     852 calls)
     s_psi        :      0.04s CPU      0.05s WALL (     852 calls)
     g_psi        :      0.01s CPU      0.01s WALL (     600 calls)

     Called by h_psi:
     h_psi:calbec :      0.06s CPU      0.07s WALL (     852 calls)
     vloc_psi     :      1.24s CPU      1.25s WALL (     852 calls)
     add_vuspsi   :      0.05s CPU      0.06s WALL (     852 calls)

     General routines
     calbec       :      0.09s CPU      0.11s WALL (    1248 calls)
     fft          :      0.08s CPU      0.08s WALL (      85 calls)
     ffts         :      0.01s CPU      0.01s WALL (      12 calls)
     fftw         :      1.16s CPU      1.16s WALL (    9894 calls)
     interpolate  :      0.01s CPU      0.01s WALL (       6 calls)

     Parallel routines

     PWSCF        :      2.91s CPU      3.09s WALL


   This run was terminated on:   9:11:42  28Jan2025            

=------------------------------------------------------------------------------=
   JOB DONE.
=------------------------------------------------------------------------------=
Note: The following floating-point exceptions are signalling: IEEE_INVALID_FLAG IEEE_DIVIDE_BY_ZERO IEEE_OVERFLOW_FLAG IEEE_UNDERFLOW_FLAG
