[Williams-MacBook-Air.local:93597] shmem: mmap: an error occurred while determining whether or not /var/folders/hy/k_vp1md94sz2dr40dtrs6ln80000gn/T//ompi.Williams-MacBook-Air.501/jf.0/2933784576/sm_segment.Williams-MacBook-Air.501.aede0000.0 could be created.

     Program PWSCF v.7.3.1 starts on 28Jan2025 at  9:11: 2 

     This program is part of the open-source Quantum ESPRESSO suite
     for quantum simulation of materials; please cite
         "P. Giannozzi et al., J. Phys.:Condens. Matter 21 395502 (2009);
         "P. Giannozzi et al., J. Phys.:Condens. Matter 29 465901 (2017);
         "P. Giannozzi et al., J. Chem. Phys. 152 154105 (2020);
          URL http://www.quantum-espresso.org", 
     in publications or presentations arising from this work. More details at
     http://www.quantum-espresso.org/quote

     Parallel version (MPI), running on     1 processors

     MPI processes distributed on     1 nodes
     0 MiB available memory on the printing compute node when the environment starts

     Reading input from Li_config_9.in

     Current dimensions of program PWSCF are:
     Max number of different atomic species (ntypx) = 10
     Max number of k-points (npk) =  40000
     Max angular momentum in pseudopotentials (lmaxx) =  4

     Subspace diagonalization in iterative solution of the eigenvalue problem:
     a serial algorithm will be used


     G-vector sticks info
     --------------------
     sticks:   dense  smooth     PW     G-vecs:    dense   smooth      PW
     Sum        2477     989    293                92973    23583    3887

     Using Slab Decomposition



     bravais-lattice index     =            1
     lattice parameter (alat)  =      10.1954  a.u.
     unit-cell volume          =    1059.7716 (a.u.)^3
     number of atoms/cell      =            2
     number of atomic types    =            1
     number of electrons       =         6.00
     number of Kohn-Sham states=            7
     kinetic-energy cutoff     =      30.0000  Ry
     charge density cutoff     =     300.0000  Ry
     scf convergence threshold =      1.0E-08
     mixing beta               =       0.7000
     number of iterations used =            8  plain     mixing
     Exchange-correlation= SLA  PW   PBX  PBC
                           (   1   4   3   4   0   0   0)

     celldm(1)=  10.195396  celldm(2)=   0.000000  celldm(3)=   0.000000
     celldm(4)=   0.000000  celldm(5)=   0.000000  celldm(6)=   0.000000

     crystal axes: (cart. coord. in units of alat)
               a(1) = (   1.000000   0.000000   0.000000 )  
               a(2) = (   0.000000   1.000000   0.000000 )  
               a(3) = (   0.000000   0.000000   1.000000 )  

     reciprocal axes: (cart. coord. in units 2 pi/alat)
               b(1) = (  1.000000  0.000000  0.000000 )  
               b(2) = (  0.000000  1.000000  0.000000 )  
               b(3) = (  0.000000  0.000000  1.000000 )  


     PseudoPot. # 1 for Li read from file:
     ../../pseudopotentials/Li.pbe-s-kjpaw_psl.1.0.0.UPF
     MD5 check sum: d3662511b3860c829f7212fdb89d6128
     Pseudo is Projector augmented-wave, Zval =  3.0
     Generated using &quot;atomic&quot; code by A. Dal Corso  v.6.3
     Shape of augmentation charge: PSQ
     Using radial grid of 1017 points,  4 beta functions with: 
                l(1) =   0
                l(2) =   0
                l(3) =   1
                l(4) =   1
     Q(r) pseudized with 0 coefficients 


     atomic species   valence    mass     pseudopotential
     Li                3.00     6.94000     Li( 1.00)

     No symmetry found



   Cartesian axes

     site n.     atom                  positions (alat units)
         1        Li     tau(   1) = (   0.0725960   0.9102500   0.9111900  )
         2        Li     tau(   2) = (   0.3510870   0.4801960   0.5815640  )

     number of k points=    36  Gaussian smearing, width (Ry)=  0.0100
                       cart. coord. in units 2pi/alat
        k(    1) = (   0.0000000   0.0000000   0.0000000), wk =   0.0312500
        k(    2) = (   0.0000000   0.0000000   0.2500000), wk =   0.0625000
        k(    3) = (   0.0000000   0.0000000  -0.5000000), wk =   0.0312500
        k(    4) = (   0.0000000   0.2500000   0.2500000), wk =   0.0625000
        k(    5) = (   0.0000000   0.2500000  -0.5000000), wk =   0.0625000
        k(    6) = (   0.0000000  -0.5000000  -0.5000000), wk =   0.0312500
        k(    7) = (   0.2500000   0.2500000   0.2500000), wk =   0.0625000
        k(    8) = (   0.2500000   0.2500000  -0.5000000), wk =   0.0625000
        k(    9) = (   0.2500000  -0.5000000  -0.5000000), wk =   0.0625000
        k(   10) = (  -0.5000000  -0.5000000  -0.5000000), wk =   0.0312500
        k(   11) = (   0.2500000   0.0000000   0.0000000), wk =   0.0625000
        k(   12) = (   0.0000000   0.2500000   0.0000000), wk =   0.0625000
        k(   13) = (  -0.5000000   0.0000000   0.0000000), wk =   0.0312500
        k(   14) = (   0.0000000  -0.5000000   0.0000000), wk =   0.0312500
        k(   15) = (   0.0000000  -0.2500000   0.2500000), wk =   0.0625000
        k(   16) = (   0.2500000   0.0000000  -0.2500000), wk =   0.0625000
        k(   17) = (  -0.2500000   0.0000000  -0.2500000), wk =   0.0625000
        k(   18) = (   0.2500000  -0.2500000   0.0000000), wk =   0.0625000
        k(   19) = (  -0.2500000  -0.2500000   0.0000000), wk =   0.0625000
        k(   20) = (   0.2500000   0.0000000   0.5000000), wk =   0.0625000
        k(   21) = (  -0.5000000  -0.2500000   0.0000000), wk =   0.0625000
        k(   22) = (   0.0000000  -0.5000000   0.2500000), wk =   0.0625000
        k(   23) = (   0.2500000  -0.5000000   0.0000000), wk =   0.0625000
        k(   24) = (  -0.5000000   0.0000000   0.2500000), wk =   0.0625000
        k(   25) = (  -0.5000000   0.0000000   0.5000000), wk =   0.0312500
        k(   26) = (  -0.5000000   0.5000000   0.0000000), wk =   0.0312500
        k(   27) = (  -0.2500000  -0.2500000   0.2500000), wk =   0.0625000
        k(   28) = (  -0.2500000   0.2500000  -0.2500000), wk =   0.0625000
        k(   29) = (   0.2500000  -0.2500000  -0.2500000), wk =   0.0625000
        k(   30) = (  -0.2500000   0.2500000   0.5000000), wk =   0.0625000
        k(   31) = (  -0.5000000  -0.2500000   0.2500000), wk =   0.0625000
        k(   32) = (   0.5000000  -0.2500000  -0.2500000), wk =   0.0625000
        k(   33) = (  -0.2500000  -0.5000000   0.2500000), wk =   0.0625000
        k(   34) = (  -0.2500000   0.5000000  -0.2500000), wk =   0.0625000
        k(   35) = (  -0.5000000   0.2500000   0.5000000), wk =   0.0625000
        k(   36) = (  -0.5000000   0.5000000   0.2500000), wk =   0.0625000

     Dense  grid:    92973 G-vectors     FFT dimensions: (  60,  60,  60)

     Smooth grid:    23583 G-vectors     FFT dimensions: (  36,  36,  36)

     Estimated max dynamical RAM per process >     136.63 MB

     Initial potential from superposition of free atoms

     starting charge       5.9908, renormalised to       6.0000
     Starting wfcs are   10 randomized atomic wfcs
     Checking if some PAW data can be deallocated... 

     total cpu time spent up to now is        0.5 secs

     Self-consistent Calculation

     iteration #  1     ecut=    30.00 Ry     beta= 0.70
     Davidson diagonalization with overlap
     ethr =  1.00E-02,  avg # of iterations =  2.0

     Threshold (ethr) on eigenvalues was too large:
     Diagonalizing with lowered threshold

     Davidson diagonalization with overlap
     ethr =  3.37E-04,  avg # of iterations =  1.5

     total cpu time spent up to now is        1.6 secs

     total energy              =     -29.81717663 Ry
     estimated scf accuracy    <       0.02158051 Ry

     iteration #  2     ecut=    30.00 Ry     beta= 0.70
     Davidson diagonalization with overlap
     ethr =  3.60E-04,  avg # of iterations =  1.0

     total cpu time spent up to now is        2.1 secs

     total energy              =     -29.81815103 Ry
     estimated scf accuracy    <       0.00094570 Ry

     iteration #  3     ecut=    30.00 Ry     beta= 0.70
     Davidson diagonalization with overlap
     ethr =  1.58E-05,  avg # of iterations =  3.9

     total cpu time spent up to now is        2.8 secs

     total energy              =     -29.81827415 Ry
     estimated scf accuracy    <       0.00002240 Ry

     iteration #  4     ecut=    30.00 Ry     beta= 0.70
     Davidson diagonalization with overlap
     ethr =  3.73E-07,  avg # of iterations =  4.2

     total cpu time spent up to now is        3.5 secs

     total energy              =     -29.81828119 Ry
     estimated scf accuracy    <       0.00000153 Ry

     iteration #  5     ecut=    30.00 Ry     beta= 0.70
     Davidson diagonalization with overlap
     ethr =  2.55E-08,  avg # of iterations =  2.5

     total cpu time spent up to now is        4.1 secs

     total energy              =     -29.81828196 Ry
     estimated scf accuracy    <       0.00000001 Ry

     iteration #  6     ecut=    30.00 Ry     beta= 0.70
     Davidson diagonalization with overlap
     ethr =  2.26E-10,  avg # of iterations =  3.4

     total cpu time spent up to now is        4.7 secs

     End of self-consistent calculation

          k = 0.0000 0.0000 0.0000 (  2945 PWs)   bands (ev):

   -50.8804 -50.8676  -3.2351   0.5764   0.9448   1.2912   1.3838

          k = 0.0000 0.0000 0.2500 (  2922 PWs)   bands (ev):

   -50.8658 -50.8578  -2.9582  -0.6313   0.8245   1.4239   1.5850

          k = 0.0000 0.0000-0.5000 (  2906 PWs)   bands (ev):

   -50.8566 -50.8538  -2.3387  -1.7979   1.1658   1.7102   1.8966

          k = 0.0000 0.2500 0.2500 (  2929 PWs)   bands (ev):

   -50.8693 -50.8595  -2.6831  -0.5408  -0.2623   1.4145   1.7505

          k = 0.0000 0.2500-0.5000 (  2938 PWs)   bands (ev):

   -50.8721 -50.8640  -2.0783  -1.5132   0.0447   0.8437   2.0911

          k = 0.0000-0.5000-0.5000 (  2968 PWs)   bands (ev):

   -50.8859 -50.8743  -1.4286  -1.2080  -0.6760  -0.3994   2.2941

          k = 0.2500 0.2500 0.2500 (  2950 PWs)   bands (ev):

   -50.8802 -50.8655  -2.4134  -0.3150  -0.1843   0.1117   1.9647

          k = 0.2500 0.2500-0.5000 (  2952 PWs)   bands (ev):

   -50.8805 -50.8670  -1.8246  -1.2428   0.1336   0.5480   1.1459

          k = 0.2500-0.5000-0.5000 (  2940 PWs)   bands (ev):

   -50.8703 -50.8659  -1.1952  -0.9617  -0.4266  -0.1419   1.1805

          k =-0.5000-0.5000-0.5000 (  3016 PWs)   bands (ev):

   -50.9023 -50.9000  -0.7932  -0.5546  -0.0058   0.3310   0.4295

          k = 0.2500 0.0000 0.0000 (  2922 PWs)   bands (ev):

   -50.8664 -50.8572  -2.9622  -0.5756   0.7951   1.1937   1.7748

          k = 0.0000 0.2500 0.0000 (  2922 PWs)   bands (ev):

   -50.8651 -50.8584  -2.9539  -0.7380   1.1203   1.5315   1.5562

          k =-0.5000 0.0000 0.0000 (  2906 PWs)   bands (ev):

   -50.8587 -50.8516  -2.3896  -1.7016   1.0791   1.4891   2.0953

          k = 0.0000-0.5000 0.0000 (  2906 PWs)   bands (ev):

   -50.8625 -50.8479  -2.2205  -1.9946   1.4356   1.7269   1.9905

          k = 0.0000-0.2500 0.2500 (  2929 PWs)   bands (ev):

   -50.8666 -50.8622  -2.6789  -0.5854  -0.2522   1.5391   1.7709

          k = 0.2500 0.0000-0.2500 (  2929 PWs)   bands (ev):

   -50.8680 -50.8608  -2.6919  -0.4212  -0.2418   1.0332   1.7495

          k =-0.2500 0.0000-0.2500 (  2929 PWs)   bands (ev):

   -50.8688 -50.8599  -2.6873  -0.4617  -0.2424   1.0366   1.9929

          k = 0.2500-0.2500 0.0000 (  2929 PWs)   bands (ev):

   -50.8708 -50.8581  -2.6868  -0.5247  -0.2390   1.3259   1.7316

          k =-0.2500-0.2500 0.0000 (  2929 PWs)   bands (ev):

   -50.8678 -50.8610  -2.6837  -0.5599  -0.2333   1.3829   1.8343

          k = 0.2500 0.0000 0.5000 (  2938 PWs)   bands (ev):

   -50.8731 -50.8630  -2.0843  -1.5288   0.2179   0.9663   1.4111

          k =-0.5000-0.2500 0.0000 (  2938 PWs)   bands (ev):

   -50.8739 -50.8622  -2.1301  -1.4116  -0.0299   0.9545   1.7679

          k = 0.0000-0.5000 0.2500 (  2938 PWs)   bands (ev):

   -50.8730 -50.8632  -1.9611  -1.7269   0.3327   0.6567   2.0262

          k = 0.2500-0.5000 0.0000 (  2938 PWs)   bands (ev):

   -50.8734 -50.8627  -1.9655  -1.7325   0.3869   0.7058   1.8810

          k =-0.5000 0.0000 0.2500 (  2938 PWs)   bands (ev):

   -50.8703 -50.8658  -2.1317  -1.4218   0.0911   1.0282   1.3598

          k =-0.5000 0.0000 0.5000 (  2968 PWs)   bands (ev):

   -50.8834 -50.8767  -1.5696  -1.0539  -0.7711  -0.0571   1.6418

          k =-0.5000 0.5000 0.0000 (  2968 PWs)   bands (ev):

   -50.8848 -50.8754  -1.4698  -1.2426  -0.6044  -0.3019   2.1133

          k =-0.2500-0.2500 0.2500 (  2950 PWs)   bands (ev):

   -50.8757 -50.8699  -2.4148  -0.3728  -0.1094   0.1146   1.8562

          k =-0.2500 0.2500-0.2500 (  2950 PWs)   bands (ev):

   -50.8767 -50.8690  -2.4124  -0.3430  -0.1581   0.1106   1.9595

          k = 0.2500-0.2500-0.2500 (  2950 PWs)   bands (ev):

   -50.8742 -50.8715  -2.4229  -0.3069  -0.1125   0.1190   1.6173

          k =-0.2500 0.2500 0.5000 (  2952 PWs)   bands (ev):

   -50.8756 -50.8719  -1.8304  -1.2484   0.2186   0.5511   1.0461

          k =-0.5000-0.2500 0.2500 (  2952 PWs)   bands (ev):

   -50.8773 -50.8702  -1.8718  -1.1293   0.0269   0.5112   1.1593

          k = 0.5000-0.2500-0.2500 (  2952 PWs)   bands (ev):

   -50.8777 -50.8697  -1.8781  -1.1339   0.1070   0.5006   1.0799

          k =-0.2500-0.5000 0.2500 (  2952 PWs)   bands (ev):

   -50.8752 -50.8722  -1.7149  -1.4725   0.5734   0.6667   0.8846

          k =-0.2500 0.5000-0.2500 (  2952 PWs)   bands (ev):

   -50.8817 -50.8658  -1.7054  -1.4624   0.3574   0.5597   1.1439

          k =-0.5000 0.2500 0.5000 (  2940 PWs)   bands (ev):

   -50.8716 -50.8646  -1.3328  -0.7638  -0.5328   0.2217   0.7456

          k =-0.5000 0.5000 0.2500 (  2940 PWs)   bands (ev):

   -50.8716 -50.8646  -1.2317  -0.9896  -0.3483  -0.0356   1.0560

     the Fermi energy is    -1.5533 ev

!    total energy              =     -29.81828201 Ry
     total all-electron energy =       -29.818305 Ry
     estimated scf accuracy    <          1.1E-09 Ry
     smearing contrib. (-TS)   =      -0.00109671 Ry
     internal energy E=F+TS    =     -29.81718530 Ry

     The total energy is F=E-TS. E is the sum of the following terms:
     one-electron contribution =     -27.10285065 Ry
     hartree contribution      =      10.01835306 Ry
     xc contribution           =      -6.78069072 Ry
     ewald contribution        =      -6.09638549 Ry
     one-center paw contrib.   =       0.14438850 Ry

     convergence has been achieved in   6 iterations

     Forces acting on atoms (cartesian axes, Ry/au):

     atom    1 type  1   force =    -0.00026125    0.00134305    0.00084137
     atom    2 type  1   force =     0.00026125   -0.00134305   -0.00084137

     Total force =     0.002272     Total SCF correction =     0.000023


     Computing stress (Cartesian axis) and pressure

          total   stress  (Ry/bohr**3)                   (kbar)     P=      -68.12
  -0.00045391  -0.00000644  -0.00000783          -66.77       -0.95       -1.15
  -0.00000644  -0.00047226   0.00000722           -0.95      -69.47        1.06
  -0.00000783   0.00000722  -0.00046313           -1.15        1.06      -68.13


     Writing all to output data dir ./tmp/Li_config_9.save/ :
     XML data file, charge density, pseudopotentials, collected wavefunctions

     init_run     :      0.43s CPU      0.45s WALL (       1 calls)
     electrons    :      3.97s CPU      4.19s WALL (       1 calls)
     forces       :      0.07s CPU      0.08s WALL (       1 calls)
     stress       :      0.38s CPU      0.39s WALL (       1 calls)

     Called by init_run:
     wfcinit      :      0.24s CPU      0.25s WALL (       1 calls)
     potinit      :      0.07s CPU      0.08s WALL (       1 calls)
     hinit0       :      0.08s CPU      0.08s WALL (       1 calls)

     Called by electrons:
     c_bands      :      2.74s CPU      2.88s WALL (       7 calls)
     sum_band     :      0.71s CPU      0.74s WALL (       7 calls)
     v_of_rho     :      0.27s CPU      0.29s WALL (       7 calls)
     newd         :      0.15s CPU      0.18s WALL (       7 calls)
     PAW_pot      :      0.15s CPU      0.15s WALL (       7 calls)
     mix_rho      :      0.02s CPU      0.02s WALL (       7 calls)

     Called by c_bands:
     init_us_2    :      0.10s CPU      0.11s WALL (     612 calls)
     cegterg      :      2.63s CPU      2.77s WALL (     252 calls)

     Called by *egterg:
     cdiaghg      :      0.03s CPU      0.03s WALL (     881 calls)
     h_psi        :      2.38s CPU      2.45s WALL (     953 calls)
     s_psi        :      0.07s CPU      0.08s WALL (     953 calls)
     g_psi        :      0.01s CPU      0.01s WALL (     665 calls)

     Called by h_psi:
     h_psi:calbec :      0.09s CPU      0.11s WALL (     953 calls)
     vloc_psi     :      2.21s CPU      2.24s WALL (     953 calls)
     add_vuspsi   :      0.07s CPU      0.09s WALL (     953 calls)

     General routines
     calbec       :      0.14s CPU      0.17s WALL (    1385 calls)
     fft          :      0.15s CPU      0.15s WALL (      98 calls)
     ffts         :      0.01s CPU      0.01s WALL (      14 calls)
     fftw         :      2.07s CPU      2.08s WALL (   11188 calls)
     interpolate  :      0.02s CPU      0.02s WALL (       7 calls)

     Parallel routines

     PWSCF        :      4.88s CPU      5.21s WALL


   This run was terminated on:   9:11: 7  28Jan2025            

=------------------------------------------------------------------------------=
   JOB DONE.
=------------------------------------------------------------------------------=
Note: The following floating-point exceptions are signalling: IEEE_INVALID_FLAG IEEE_DIVIDE_BY_ZERO IEEE_OVERFLOW_FLAG IEEE_UNDERFLOW_FLAG
