[Williams-MacBook-Air.local:93696] shmem: mmap: an error occurred while determining whether or not /var/folders/hy/k_vp1md94sz2dr40dtrs6ln80000gn/T//ompi.Williams-MacBook-Air.501/jf.0/3831889920/sm_segment.Williams-MacBook-Air.501.e4660000.0 could be created.

     Program PWSCF v.7.3.1 starts on 28Jan2025 at  9:12:32 

     This program is part of the open-source Quantum ESPRESSO suite
     for quantum simulation of materials; please cite
         "P. Giannozzi et al., J. Phys.:Condens. Matter 21 395502 (2009);
         "P. Giannozzi et al., J. Phys.:Condens. Matter 29 465901 (2017);
         "P. Giannozzi et al., J. Chem. Phys. 152 154105 (2020);
          URL http://www.quantum-espresso.org", 
     in publications or presentations arising from this work. More details at
     http://www.quantum-espresso.org/quote

     Parallel version (MPI), running on     1 processors

     MPI processes distributed on     1 nodes
     0 MiB available memory on the printing compute node when the environment starts

     Reading input from Li_config_23.in

     Current dimensions of program PWSCF are:
     Max number of different atomic species (ntypx) = 10
     Max number of k-points (npk) =  40000
     Max angular momentum in pseudopotentials (lmaxx) =  4

     Subspace diagonalization in iterative solution of the eigenvalue problem:
     a serial algorithm will be used


     G-vector sticks info
     --------------------
     sticks:   dense  smooth     PW     G-vecs:    dense   smooth      PW
     Sum        2981    1201    349               122969    31103    4945

     Using Slab Decomposition



     bravais-lattice index     =            1
     lattice parameter (alat)  =      11.1905  a.u.
     unit-cell volume          =    1401.3413 (a.u.)^3
     number of atoms/cell      =            2
     number of atomic types    =            1
     number of electrons       =         6.00
     number of Kohn-Sham states=            7
     kinetic-energy cutoff     =      30.0000  Ry
     charge density cutoff     =     300.0000  Ry
     scf convergence threshold =      1.0E-08
     mixing beta               =       0.7000
     number of iterations used =            8  plain     mixing
     Exchange-correlation= SLA  PW   PBX  PBC
                           (   1   4   3   4   0   0   0)

     celldm(1)=  11.190461  celldm(2)=   0.000000  celldm(3)=   0.000000
     celldm(4)=   0.000000  celldm(5)=   0.000000  celldm(6)=   0.000000

     crystal axes: (cart. coord. in units of alat)
               a(1) = (   1.000000   0.000000   0.000000 )  
               a(2) = (   0.000000   1.000000   0.000000 )  
               a(3) = (   0.000000   0.000000   1.000000 )  

     reciprocal axes: (cart. coord. in units 2 pi/alat)
               b(1) = (  1.000000  0.000000  0.000000 )  
               b(2) = (  0.000000  1.000000  0.000000 )  
               b(3) = (  0.000000  0.000000  1.000000 )  


     PseudoPot. # 1 for Li read from file:
     ../../pseudopotentials/Li.pbe-s-kjpaw_psl.1.0.0.UPF
     MD5 check sum: d3662511b3860c829f7212fdb89d6128
     Pseudo is Projector augmented-wave, Zval =  3.0
     Generated using &quot;atomic&quot; code by A. Dal Corso  v.6.3
     Shape of augmentation charge: PSQ
     Using radial grid of 1017 points,  4 beta functions with: 
                l(1) =   0
                l(2) =   0
                l(3) =   1
                l(4) =   1
     Q(r) pseudized with 0 coefficients 


     atomic species   valence    mass     pseudopotential
     Li                3.00     6.94000     Li( 1.00)

     No symmetry found



   Cartesian axes

     site n.     atom                  positions (alat units)
         1        Li     tau(   1) = (   0.9588670   0.0632360   0.1127810  )
         2        Li     tau(   2) = (   0.3695000   0.4116980   0.5422710  )

     number of k points=    36  Gaussian smearing, width (Ry)=  0.0100
                       cart. coord. in units 2pi/alat
        k(    1) = (   0.0000000   0.0000000   0.0000000), wk =   0.0312500
        k(    2) = (   0.0000000   0.0000000   0.2500000), wk =   0.0625000
        k(    3) = (   0.0000000   0.0000000  -0.5000000), wk =   0.0312500
        k(    4) = (   0.0000000   0.2500000   0.2500000), wk =   0.0625000
        k(    5) = (   0.0000000   0.2500000  -0.5000000), wk =   0.0625000
        k(    6) = (   0.0000000  -0.5000000  -0.5000000), wk =   0.0312500
        k(    7) = (   0.2500000   0.2500000   0.2500000), wk =   0.0625000
        k(    8) = (   0.2500000   0.2500000  -0.5000000), wk =   0.0625000
        k(    9) = (   0.2500000  -0.5000000  -0.5000000), wk =   0.0625000
        k(   10) = (  -0.5000000  -0.5000000  -0.5000000), wk =   0.0312500
        k(   11) = (   0.2500000   0.0000000   0.0000000), wk =   0.0625000
        k(   12) = (   0.0000000   0.2500000   0.0000000), wk =   0.0625000
        k(   13) = (  -0.5000000   0.0000000   0.0000000), wk =   0.0312500
        k(   14) = (   0.0000000  -0.5000000   0.0000000), wk =   0.0312500
        k(   15) = (   0.0000000  -0.2500000   0.2500000), wk =   0.0625000
        k(   16) = (   0.2500000   0.0000000  -0.2500000), wk =   0.0625000
        k(   17) = (  -0.2500000   0.0000000  -0.2500000), wk =   0.0625000
        k(   18) = (   0.2500000  -0.2500000   0.0000000), wk =   0.0625000
        k(   19) = (  -0.2500000  -0.2500000   0.0000000), wk =   0.0625000
        k(   20) = (   0.2500000   0.0000000   0.5000000), wk =   0.0625000
        k(   21) = (  -0.5000000  -0.2500000   0.0000000), wk =   0.0625000
        k(   22) = (   0.0000000  -0.5000000   0.2500000), wk =   0.0625000
        k(   23) = (   0.2500000  -0.5000000   0.0000000), wk =   0.0625000
        k(   24) = (  -0.5000000   0.0000000   0.2500000), wk =   0.0625000
        k(   25) = (  -0.5000000   0.0000000   0.5000000), wk =   0.0312500
        k(   26) = (  -0.5000000   0.5000000   0.0000000), wk =   0.0312500
        k(   27) = (  -0.2500000  -0.2500000   0.2500000), wk =   0.0625000
        k(   28) = (  -0.2500000   0.2500000  -0.2500000), wk =   0.0625000
        k(   29) = (   0.2500000  -0.2500000  -0.2500000), wk =   0.0625000
        k(   30) = (  -0.2500000   0.2500000   0.5000000), wk =   0.0625000
        k(   31) = (  -0.5000000  -0.2500000   0.2500000), wk =   0.0625000
        k(   32) = (   0.5000000  -0.2500000  -0.2500000), wk =   0.0625000
        k(   33) = (  -0.2500000  -0.5000000   0.2500000), wk =   0.0625000
        k(   34) = (  -0.2500000   0.5000000  -0.2500000), wk =   0.0625000
        k(   35) = (  -0.5000000   0.2500000   0.5000000), wk =   0.0625000
        k(   36) = (  -0.5000000   0.5000000   0.2500000), wk =   0.0625000

     Dense  grid:   122969 G-vectors     FFT dimensions: (  64,  64,  64)

     Smooth grid:    31103 G-vectors     FFT dimensions: (  40,  40,  40)

     Estimated max dynamical RAM per process >     178.96 MB

     Initial potential from superposition of free atoms

     starting charge       5.9908, renormalised to       6.0000
     Starting wfcs are   10 randomized atomic wfcs
     Checking if some PAW data can be deallocated... 

     total cpu time spent up to now is        0.6 secs

     Self-consistent Calculation

     iteration #  1     ecut=    30.00 Ry     beta= 0.70
     Davidson diagonalization with overlap
     ethr =  1.00E-02,  avg # of iterations =  2.0

     Threshold (ethr) on eigenvalues was too large:
     Diagonalizing with lowered threshold

     Davidson diagonalization with overlap
     ethr =  3.31E-04,  avg # of iterations =  1.3

     total cpu time spent up to now is        2.1 secs

     total energy              =     -29.78206496 Ry
     estimated scf accuracy    <       0.02097643 Ry

     iteration #  2     ecut=    30.00 Ry     beta= 0.70
     Davidson diagonalization with overlap
     ethr =  3.50E-04,  avg # of iterations =  1.0

     total cpu time spent up to now is        2.7 secs

     total energy              =     -29.78317102 Ry
     estimated scf accuracy    <       0.00111283 Ry

     iteration #  3     ecut=    30.00 Ry     beta= 0.70
     Davidson diagonalization with overlap
     ethr =  1.85E-05,  avg # of iterations =  2.4

     total cpu time spent up to now is        3.5 secs

     total energy              =     -29.78333801 Ry
     estimated scf accuracy    <       0.00003051 Ry

     iteration #  4     ecut=    30.00 Ry     beta= 0.70
     Davidson diagonalization with overlap
     ethr =  5.09E-07,  avg # of iterations =  4.1

     total cpu time spent up to now is        4.5 secs

     total energy              =     -29.78334932 Ry
     estimated scf accuracy    <       0.00000185 Ry

     iteration #  5     ecut=    30.00 Ry     beta= 0.70
     Davidson diagonalization with overlap
     ethr =  3.09E-08,  avg # of iterations =  2.6

     total cpu time spent up to now is        5.2 secs

     total energy              =     -29.78335036 Ry
     estimated scf accuracy    <       0.00000002 Ry

     iteration #  6     ecut=    30.00 Ry     beta= 0.70
     Davidson diagonalization with overlap
     ethr =  2.79E-10,  avg # of iterations =  3.4

     total cpu time spent up to now is        6.0 secs

     End of self-consistent calculation

          k = 0.0000 0.0000 0.0000 (  3887 PWs)   bands (ev):

   -51.6206 -51.6122  -3.1694   0.1750   0.2691   0.4424   0.4952

          k = 0.0000 0.0000 0.2500 (  3880 PWs)   bands (ev):

   -51.6157 -51.6086  -2.9303  -1.0219   0.4453   0.6412   0.7891

          k = 0.0000 0.0000-0.5000 (  3868 PWs)   bands (ev):

   -51.6079 -51.6057  -2.3266  -2.0758   0.8077   1.0433   1.0547

          k = 0.0000 0.2500 0.2500 (  3894 PWs)   bands (ev):

   -51.6189 -51.6127  -2.7016  -0.8082  -0.7056   0.6355   0.9344

          k = 0.0000 0.2500-0.5000 (  3894 PWs)   bands (ev):

   -51.6164 -51.6140  -2.1034  -1.8472  -0.1670   0.1139   1.0859

          k = 0.0000-0.5000-0.5000 (  3900 PWs)   bands (ev):

   -51.6212 -51.6131  -1.6387  -1.3720  -1.0604  -0.7839   1.3101

          k = 0.2500 0.2500 0.2500 (  3872 PWs)   bands (ev):

   -51.6108 -51.6059  -2.4677  -0.6077  -0.5379  -0.4542   0.8362

          k = 0.2500 0.2500-0.5000 (  3872 PWs)   bands (ev):

   -51.6116 -51.6046  -1.8744  -1.6119  -0.0438   0.0803   0.1772

          k = 0.2500-0.5000-0.5000 (  3900 PWs)   bands (ev):

   -51.6207 -51.6127  -1.4168  -1.1438  -0.8292  -0.5609   0.3739

          k =-0.5000-0.5000-0.5000 (  3912 PWs)   bands (ev):

   -51.6225 -51.6205  -0.9096  -0.6304  -0.5374  -0.3482  -0.3098

          k = 0.2500 0.0000 0.0000 (  3880 PWs)   bands (ev):

   -51.6165 -51.6078  -2.9316  -1.0091   0.4164   0.6257   0.8054

          k = 0.0000 0.2500 0.0000 (  3880 PWs)   bands (ev):

   -51.6144 -51.6099  -2.9380  -0.9518   0.3817   0.4673   0.8920

          k =-0.5000 0.0000 0.0000 (  3868 PWs)   bands (ev):

   -51.6083 -51.6053  -2.3553  -2.0369   0.7821   0.9805   1.0962

          k = 0.0000-0.5000 0.0000 (  3868 PWs)   bands (ev):

   -51.6105 -51.6031  -2.4415  -1.9045   0.6712   0.7883   1.2700

          k = 0.0000-0.2500 0.2500 (  3894 PWs)   bands (ev):

   -51.6178 -51.6138  -2.6999  -0.8096  -0.7242   0.6464   1.0580

          k = 0.2500 0.0000-0.2500 (  3894 PWs)   bands (ev):

   -51.6196 -51.6120  -2.6933  -0.7985  -0.7809   0.7770   1.0855

          k =-0.2500 0.0000-0.2500 (  3894 PWs)   bands (ev):

   -51.6183 -51.6133  -2.6947  -0.8035  -0.7582   0.7327   0.9767

          k = 0.2500-0.2500 0.0000 (  3894 PWs)   bands (ev):

   -51.6198 -51.6118  -2.7014  -0.7971  -0.7267   0.6122   1.0732

          k =-0.2500-0.2500 0.0000 (  3894 PWs)   bands (ev):

   -51.6167 -51.6149  -2.7029  -0.7987  -0.7026   0.6074   0.9232

          k = 0.2500 0.0000 0.5000 (  3894 PWs)   bands (ev):

   -51.6176 -51.6129  -2.0957  -1.8387  -0.2250   0.0668   1.1897

          k =-0.5000-0.2500 0.0000 (  3894 PWs)   bands (ev):

   -51.6196 -51.6109  -2.1328  -1.8074  -0.1992   0.1564   1.0222

          k = 0.0000-0.5000 0.2500 (  3894 PWs)   bands (ev):

   -51.6185 -51.6119  -2.2116  -1.6618  -0.3732   0.2426   0.9667

          k = 0.2500-0.5000 0.0000 (  3894 PWs)   bands (ev):

   -51.6167 -51.6137  -2.2132  -1.6637  -0.3584   0.2523   0.9284

          k =-0.5000 0.0000 0.2500 (  3894 PWs)   bands (ev):

   -51.6191 -51.6114  -2.1237  -1.7969  -0.2719   0.1002   1.1722

          k =-0.5000 0.0000 0.5000 (  3900 PWs)   bands (ev):

   -51.6181 -51.6162  -1.5487  -1.2773  -1.1994  -0.9251   1.4504

          k =-0.5000 0.5000 0.0000 (  3900 PWs)   bands (ev):

   -51.6188 -51.6156  -1.6687  -1.3304  -1.0927  -0.7423   1.2543

          k =-0.2500-0.2500 0.2500 (  3872 PWs)   bands (ev):

   -51.6100 -51.6067  -2.4643  -0.6028  -0.5726  -0.4606   0.9597

          k =-0.2500 0.2500-0.2500 (  3872 PWs)   bands (ev):

   -51.6122 -51.6045  -2.4640  -0.6069  -0.5372  -0.4991   0.9970

          k = 0.2500-0.2500-0.2500 (  3872 PWs)   bands (ev):

   -51.6125 -51.6042  -2.4643  -0.6025  -0.5678  -0.4689   0.9757

          k =-0.2500 0.2500 0.5000 (  3872 PWs)   bands (ev):

   -51.6106 -51.6056  -1.8721  -1.6100  -0.0629  -0.0132   0.2934

          k =-0.5000-0.2500 0.2500 (  3872 PWs)   bands (ev):

   -51.6145 -51.6017  -1.9006  -1.5676  -0.0969  -0.0256   0.2888

          k = 0.5000-0.2500-0.2500 (  3872 PWs)   bands (ev):

   -51.6086 -51.6076  -1.9025  -1.5692  -0.0776   0.0341   0.2041

          k =-0.2500-0.5000 0.2500 (  3872 PWs)   bands (ev):

   -51.6110 -51.6052  -1.9817  -1.4218  -0.1886  -0.1315   0.3187

          k =-0.2500 0.5000-0.2500 (  3872 PWs)   bands (ev):

   -51.6123 -51.6039  -1.9844  -1.4225  -0.1493  -0.1323   0.2766

          k =-0.5000 0.2500 0.5000 (  3900 PWs)   bands (ev):

   -51.6178 -51.6156  -1.3346  -1.0570  -0.9817  -0.7084   0.5288

          k =-0.5000 0.5000 0.2500 (  3900 PWs)   bands (ev):

   -51.6181 -51.6153  -1.4453  -1.0999  -0.8583  -0.5189   0.3213

     the Fermi energy is    -1.7488 ev

!    total energy              =     -29.78335040 Ry
     total all-electron energy =       -29.783373 Ry
     estimated scf accuracy    <          7.6E-10 Ry
     smearing contrib. (-TS)   =      -0.00136187 Ry
     internal energy E=F+TS    =     -29.78198853 Ry

     The total energy is F=E-TS. E is the sum of the following terms:
     one-electron contribution =     -27.57756003 Ry
     hartree contribution      =      10.10606797 Ry
     xc contribution           =      -6.72598025 Ry
     ewald contribution        =      -5.72859178 Ry
     one-center paw contrib.   =       0.14407556 Ry

     convergence has been achieved in   6 iterations

     Forces acting on atoms (cartesian axes, Ry/au):

     atom    1 type  1   force =     0.00300873    0.00443433    0.00242535
     atom    2 type  1   force =    -0.00300873   -0.00443433   -0.00242535

     Total force =     0.008318     Total SCF correction =     0.000027


     Computing stress (Cartesian axis) and pressure

          total   stress  (Ry/bohr**3)                   (kbar)     P=      -53.71
  -0.00036738  -0.00000294  -0.00000153          -54.04       -0.43       -0.22
  -0.00000294  -0.00035866  -0.00000237           -0.43      -52.76       -0.35
  -0.00000153  -0.00000237  -0.00036937           -0.22       -0.35      -54.34


     Writing all to output data dir ./tmp/Li_config_23.save/ :
     XML data file, charge density, pseudopotentials, collected wavefunctions

     init_run     :      0.54s CPU      0.57s WALL (       1 calls)
     electrons    :      5.15s CPU      5.45s WALL (       1 calls)
     forces       :      0.09s CPU      0.11s WALL (       1 calls)
     stress       :      0.50s CPU      0.53s WALL (       1 calls)

     Called by init_run:
     wfcinit      :      0.31s CPU      0.33s WALL (       1 calls)
     potinit      :      0.09s CPU      0.10s WALL (       1 calls)
     hinit0       :      0.07s CPU      0.08s WALL (       1 calls)

     Called by electrons:
     c_bands      :      3.54s CPU      3.74s WALL (       7 calls)
     sum_band     :      0.92s CPU      0.97s WALL (       7 calls)
     v_of_rho     :      0.37s CPU      0.39s WALL (       7 calls)
     newd         :      0.21s CPU      0.24s WALL (       7 calls)
     PAW_pot      :      0.15s CPU      0.15s WALL (       7 calls)
     mix_rho      :      0.03s CPU      0.04s WALL (       7 calls)

     Called by c_bands:
     init_us_2    :      0.13s CPU      0.14s WALL (     612 calls)
     cegterg      :      3.41s CPU      3.60s WALL (     252 calls)

     Called by *egterg:
     cdiaghg      :      0.02s CPU      0.02s WALL (     821 calls)
     h_psi        :      3.12s CPU      3.21s WALL (     893 calls)
     s_psi        :      0.09s CPU      0.12s WALL (     893 calls)
     g_psi        :      0.01s CPU      0.01s WALL (     605 calls)

     Called by h_psi:
     h_psi:calbec :      0.11s CPU      0.15s WALL (     893 calls)
     vloc_psi     :      2.90s CPU      2.92s WALL (     893 calls)
     add_vuspsi   :      0.09s CPU      0.12s WALL (     893 calls)

     General routines
     calbec       :      0.18s CPU      0.23s WALL (    1325 calls)
     fft          :      0.25s CPU      0.25s WALL (      98 calls)
     ffts         :      0.01s CPU      0.01s WALL (      14 calls)
     fftw         :      2.74s CPU      2.76s WALL (   11164 calls)
     interpolate  :      0.02s CPU      0.03s WALL (       7 calls)

     Parallel routines

     PWSCF        :      6.32s CPU      6.72s WALL


   This run was terminated on:   9:12:39  28Jan2025            

=------------------------------------------------------------------------------=
   JOB DONE.
=------------------------------------------------------------------------------=
Note: The following floating-point exceptions are signalling: IEEE_INVALID_FLAG IEEE_DIVIDE_BY_ZERO IEEE_OVERFLOW_FLAG IEEE_UNDERFLOW_FLAG
