[Williams-MacBook-Air.local:93630] shmem: mmap: an error occurred while determining whether or not /var/folders/hy/k_vp1md94sz2dr40dtrs6ln80000gn/T//ompi.Williams-MacBook-Air.501/jf.0/3833069568/sm_segment.Williams-MacBook-Air.501.e4780000.0 could be created.

     Program PWSCF v.7.3.1 starts on 28Jan2025 at  9:11:42 

     This program is part of the open-source Quantum ESPRESSO suite
     for quantum simulation of materials; please cite
         "P. Giannozzi et al., J. Phys.:Condens. Matter 21 395502 (2009);
         "P. Giannozzi et al., J. Phys.:Condens. Matter 29 465901 (2017);
         "P. Giannozzi et al., J. Chem. Phys. 152 154105 (2020);
          URL http://www.quantum-espresso.org", 
     in publications or presentations arising from this work. More details at
     http://www.quantum-espresso.org/quote

     Parallel version (MPI), running on     1 processors

     MPI processes distributed on     1 nodes
     0 MiB available memory on the printing compute node when the environment starts

     Reading input from Li_config_15.in

     Current dimensions of program PWSCF are:
     Max number of different atomic species (ntypx) = 10
     Max number of k-points (npk) =  40000
     Max angular momentum in pseudopotentials (lmaxx) =  4

     Subspace diagonalization in iterative solution of the eigenvalue problem:
     a serial algorithm will be used


     G-vector sticks info
     --------------------
     sticks:   dense  smooth     PW     G-vecs:    dense   smooth      PW
     Sum        2025     797    241                68051    17077    2945

     Using Slab Decomposition



     bravais-lattice index     =            1
     lattice parameter (alat)  =       9.1864  a.u.
     unit-cell volume          =     775.2362 (a.u.)^3
     number of atoms/cell      =            2
     number of atomic types    =            1
     number of electrons       =         6.00
     number of Kohn-Sham states=            7
     kinetic-energy cutoff     =      30.0000  Ry
     charge density cutoff     =     300.0000  Ry
     scf convergence threshold =      1.0E-08
     mixing beta               =       0.7000
     number of iterations used =            8  plain     mixing
     Exchange-correlation= SLA  PW   PBX  PBC
                           (   1   4   3   4   0   0   0)

     celldm(1)=   9.186386  celldm(2)=   0.000000  celldm(3)=   0.000000
     celldm(4)=   0.000000  celldm(5)=   0.000000  celldm(6)=   0.000000

     crystal axes: (cart. coord. in units of alat)
               a(1) = (   1.000000   0.000000   0.000000 )  
               a(2) = (   0.000000   1.000000   0.000000 )  
               a(3) = (   0.000000   0.000000   1.000000 )  

     reciprocal axes: (cart. coord. in units 2 pi/alat)
               b(1) = (  1.000000  0.000000  0.000000 )  
               b(2) = (  0.000000  1.000000  0.000000 )  
               b(3) = (  0.000000  0.000000  1.000000 )  


     PseudoPot. # 1 for Li read from file:
     ../../pseudopotentials/Li.pbe-s-kjpaw_psl.1.0.0.UPF
     MD5 check sum: d3662511b3860c829f7212fdb89d6128
     Pseudo is Projector augmented-wave, Zval =  3.0
     Generated using &quot;atomic&quot; code by A. Dal Corso  v.6.3
     Shape of augmentation charge: PSQ
     Using radial grid of 1017 points,  4 beta functions with: 
                l(1) =   0
                l(2) =   0
                l(3) =   1
                l(4) =   1
     Q(r) pseudized with 0 coefficients 


     atomic species   valence    mass     pseudopotential
     Li                3.00     6.94000     Li( 1.00)

     No symmetry found



   Cartesian axes

     site n.     atom                  positions (alat units)
         1        Li     tau(   1) = (   0.9460260   0.9728210   0.1039050  )
         2        Li     tau(   2) = (   0.3516720   0.6449300   0.5743930  )

     number of k points=    36  Gaussian smearing, width (Ry)=  0.0100
                       cart. coord. in units 2pi/alat
        k(    1) = (   0.0000000   0.0000000   0.0000000), wk =   0.0312500
        k(    2) = (   0.0000000   0.0000000   0.2500000), wk =   0.0625000
        k(    3) = (   0.0000000   0.0000000  -0.5000000), wk =   0.0312500
        k(    4) = (   0.0000000   0.2500000   0.2500000), wk =   0.0625000
        k(    5) = (   0.0000000   0.2500000  -0.5000000), wk =   0.0625000
        k(    6) = (   0.0000000  -0.5000000  -0.5000000), wk =   0.0312500
        k(    7) = (   0.2500000   0.2500000   0.2500000), wk =   0.0625000
        k(    8) = (   0.2500000   0.2500000  -0.5000000), wk =   0.0625000
        k(    9) = (   0.2500000  -0.5000000  -0.5000000), wk =   0.0625000
        k(   10) = (  -0.5000000  -0.5000000  -0.5000000), wk =   0.0312500
        k(   11) = (   0.2500000   0.0000000   0.0000000), wk =   0.0625000
        k(   12) = (   0.0000000   0.2500000   0.0000000), wk =   0.0625000
        k(   13) = (  -0.5000000   0.0000000   0.0000000), wk =   0.0312500
        k(   14) = (   0.0000000  -0.5000000   0.0000000), wk =   0.0312500
        k(   15) = (   0.0000000  -0.2500000   0.2500000), wk =   0.0625000
        k(   16) = (   0.2500000   0.0000000  -0.2500000), wk =   0.0625000
        k(   17) = (  -0.2500000   0.0000000  -0.2500000), wk =   0.0625000
        k(   18) = (   0.2500000  -0.2500000   0.0000000), wk =   0.0625000
        k(   19) = (  -0.2500000  -0.2500000   0.0000000), wk =   0.0625000
        k(   20) = (   0.2500000   0.0000000   0.5000000), wk =   0.0625000
        k(   21) = (  -0.5000000  -0.2500000   0.0000000), wk =   0.0625000
        k(   22) = (   0.0000000  -0.5000000   0.2500000), wk =   0.0625000
        k(   23) = (   0.2500000  -0.5000000   0.0000000), wk =   0.0625000
        k(   24) = (  -0.5000000   0.0000000   0.2500000), wk =   0.0625000
        k(   25) = (  -0.5000000   0.0000000   0.5000000), wk =   0.0312500
        k(   26) = (  -0.5000000   0.5000000   0.0000000), wk =   0.0312500
        k(   27) = (  -0.2500000  -0.2500000   0.2500000), wk =   0.0625000
        k(   28) = (  -0.2500000   0.2500000  -0.2500000), wk =   0.0625000
        k(   29) = (   0.2500000  -0.2500000  -0.2500000), wk =   0.0625000
        k(   30) = (  -0.2500000   0.2500000   0.5000000), wk =   0.0625000
        k(   31) = (  -0.5000000  -0.2500000   0.2500000), wk =   0.0625000
        k(   32) = (   0.5000000  -0.2500000  -0.2500000), wk =   0.0625000
        k(   33) = (  -0.2500000  -0.5000000   0.2500000), wk =   0.0625000
        k(   34) = (  -0.2500000   0.5000000  -0.2500000), wk =   0.0625000
        k(   35) = (  -0.5000000   0.2500000   0.5000000), wk =   0.0625000
        k(   36) = (  -0.5000000   0.5000000   0.2500000), wk =   0.0625000

     Dense  grid:    68051 G-vectors     FFT dimensions: (  54,  54,  54)

     Smooth grid:    17077 G-vectors     FFT dimensions: (  36,  36,  36)

     Estimated max dynamical RAM per process >     100.06 MB

     Initial potential from superposition of free atoms

     starting charge       5.9908, renormalised to       6.0000
     Starting wfcs are   10 randomized atomic wfcs
     Checking if some PAW data can be deallocated... 

     total cpu time spent up to now is        0.4 secs

     Self-consistent Calculation

     iteration #  1     ecut=    30.00 Ry     beta= 0.70
     Davidson diagonalization with overlap
     ethr =  1.00E-02,  avg # of iterations =  2.2

     Threshold (ethr) on eigenvalues was too large:
     Diagonalizing with lowered threshold

     Davidson diagonalization with overlap
     ethr =  2.57E-04,  avg # of iterations =  1.9

     total cpu time spent up to now is        1.4 secs

     total energy              =     -29.85355909 Ry
     estimated scf accuracy    <       0.01604576 Ry

     iteration #  2     ecut=    30.00 Ry     beta= 0.70
     Davidson diagonalization with overlap
     ethr =  2.67E-04,  avg # of iterations =  1.0

     total cpu time spent up to now is        1.8 secs

     total energy              =     -29.85414935 Ry
     estimated scf accuracy    <       0.00078229 Ry

     iteration #  3     ecut=    30.00 Ry     beta= 0.70
     Davidson diagonalization with overlap
     ethr =  1.30E-05,  avg # of iterations =  4.4

     total cpu time spent up to now is        2.4 secs

     total energy              =     -29.85423869 Ry
     estimated scf accuracy    <       0.00000701 Ry

     iteration #  4     ecut=    30.00 Ry     beta= 0.70
     Davidson diagonalization with overlap
     ethr =  1.17E-07,  avg # of iterations =  4.5

     total cpu time spent up to now is        3.0 secs

     total energy              =     -29.85424082 Ry
     estimated scf accuracy    <       0.00000013 Ry

     iteration #  5     ecut=    30.00 Ry     beta= 0.70
     Davidson diagonalization with overlap
     ethr =  2.25E-09,  avg # of iterations =  2.3

     total cpu time spent up to now is        3.5 secs

     End of self-consistent calculation

          k = 0.0000 0.0000 0.0000 (  2109 PWs)   bands (ev):

   -50.1869 -50.1850  -3.2518   1.4840   1.6131   1.9424   2.6223

          k = 0.0000 0.0000 0.2500 (  2160 PWs)   bands (ev):

   -50.2180 -50.2113  -2.9107  -0.2021   1.9486   2.2652   2.9082

          k = 0.0000 0.0000-0.5000 (  2104 PWs)   bands (ev):

   -50.1867 -50.1779  -1.9186  -1.8419   2.7001   2.9045   3.0243

          k = 0.0000 0.2500 0.2500 (  2157 PWs)   bands (ev):

   -50.2228 -50.2036  -2.5698  -0.0511   0.4609   2.2578   2.9509

          k = 0.0000 0.2500-0.5000 (  2142 PWs)   bands (ev):

   -50.2118 -50.1984  -1.5949  -1.5137   1.2619   1.4125   3.1120

          k = 0.0000-0.5000-0.5000 (  2160 PWs)   bands (ev):

   -50.2306 -50.2023  -0.9179  -0.8616  -0.0249   0.0878   3.4959

          k = 0.2500 0.2500 0.2500 (  2157 PWs)   bands (ev):

   -50.2196 -50.2074  -2.2277   0.2406   0.3563   1.0528   3.2085

          k = 0.2500 0.2500-0.5000 (  2166 PWs)   bands (ev):

   -50.2298 -50.2085  -1.2663  -1.1779   1.2024   1.3609   2.0907

          k = 0.2500-0.5000-0.5000 (  2176 PWs)   bands (ev):

   -50.2353 -50.2127  -0.5984  -0.5240   0.2587   0.3959   2.3026

          k =-0.5000-0.5000-0.5000 (  2176 PWs)   bands (ev):

   -50.2280 -50.2179   0.0242   0.0978   0.6907   0.8892   1.5531

          k = 0.2500 0.0000 0.0000 (  2160 PWs)   bands (ev):

   -50.2179 -50.2115  -2.9107  -0.1664   1.8335   2.2253   2.9148

          k = 0.0000 0.2500 0.0000 (  2160 PWs)   bands (ev):

   -50.2207 -50.2087  -2.9110  -0.1020   1.7931   1.9275   3.3257

          k =-0.5000 0.0000 0.0000 (  2104 PWs)   bands (ev):

   -50.1900 -50.1747  -1.9915  -1.7447   2.5236   2.7577   3.1579

          k = 0.0000-0.5000 0.0000 (  2104 PWs)   bands (ev):

   -50.1857 -50.1789  -2.0625  -1.6266   2.3001   2.4253   3.6167

          k = 0.0000-0.2500 0.2500 (  2157 PWs)   bands (ev):

   -50.2200 -50.2063  -2.5703  -0.0454   0.4684   2.2538   2.8738

          k = 0.2500 0.0000-0.2500 (  2157 PWs)   bands (ev):

   -50.2210 -50.2054  -2.5690  -0.1047   0.4787   2.4773   3.0264

          k =-0.2500 0.0000-0.2500 (  2157 PWs)   bands (ev):

   -50.2152 -50.2111  -2.5698  -0.0968   0.4818   2.4577   2.9499

          k = 0.2500-0.2500 0.0000 (  2157 PWs)   bands (ev):

   -50.2153 -50.2110  -2.5712  -0.0121   0.4748   2.1396   2.8174

          k =-0.2500-0.2500 0.0000 (  2157 PWs)   bands (ev):

   -50.2186 -50.2078  -2.5675  -0.0208   0.4450   2.1308   3.0395

          k = 0.2500 0.0000 0.5000 (  2142 PWs)   bands (ev):

   -50.2088 -50.2014  -1.5961  -1.5135   1.2263   1.3790   3.2179

          k =-0.5000-0.2500 0.0000 (  2142 PWs)   bands (ev):

   -50.2145 -50.1958  -1.6711  -1.4097   1.1135   1.5888   2.8107

          k = 0.0000-0.5000 0.2500 (  2142 PWs)   bands (ev):

   -50.2131 -50.1971  -1.7488  -1.2770   0.8784   1.7119   2.7813

          k = 0.2500-0.5000 0.0000 (  2142 PWs)   bands (ev):

   -50.2061 -50.2042  -1.7469  -1.2782   0.9105   1.7385   2.6331

          k =-0.5000 0.0000 0.2500 (  2142 PWs)   bands (ev):

   -50.2083 -50.2019  -1.6743  -1.4082   1.0452   1.5324   3.1334

          k =-0.5000 0.0000 0.5000 (  2160 PWs)   bands (ev):

   -50.2195 -50.2132  -0.9015  -0.8629  -0.0435   0.0270   3.6848

          k =-0.5000 0.5000 0.0000 (  2160 PWs)   bands (ev):

   -50.2195 -50.2132  -0.9623  -0.7917  -0.1388   0.2214   3.2167

          k =-0.2500-0.2500 0.2500 (  2157 PWs)   bands (ev):

   -50.2169 -50.2101  -2.2281   0.2308   0.3671   1.0566   3.1974

          k =-0.2500 0.2500-0.2500 (  2157 PWs)   bands (ev):

   -50.2195 -50.2076  -2.2340   0.2385   0.3881   1.0913   2.9860

          k = 0.2500-0.2500-0.2500 (  2157 PWs)   bands (ev):

   -50.2191 -50.2079  -2.2319   0.2248   0.3866   1.0773   3.0918

          k =-0.2500 0.2500 0.5000 (  2166 PWs)   bands (ev):

   -50.2218 -50.2165  -1.2763  -1.1883   1.3778   1.5789   1.8386

          k =-0.5000-0.2500 0.2500 (  2166 PWs)   bands (ev):

   -50.2208 -50.2174  -1.3551  -1.0710   1.1040   1.6021   1.9774

          k = 0.5000-0.2500-0.2500 (  2166 PWs)   bands (ev):

   -50.2269 -50.2114  -1.3519  -1.0673   1.0572   1.5436   2.0361

          k =-0.2500-0.5000 0.2500 (  2166 PWs)   bands (ev):

   -50.2218 -50.2165  -1.4317  -0.9194   0.8365   1.6342   1.9898

          k =-0.2500 0.5000-0.2500 (  2166 PWs)   bands (ev):

   -50.2222 -50.2161  -1.4342  -0.9216   0.8626   1.6527   1.9625

          k =-0.5000 0.2500 0.5000 (  2176 PWs)   bands (ev):

   -50.2262 -50.2216  -0.5743  -0.5240   0.2320   0.3174   2.4721

          k =-0.5000 0.5000 0.2500 (  2176 PWs)   bands (ev):

   -50.2282 -50.2197  -0.6587  -0.4234   0.1129   0.5552   2.1256

     the Fermi energy is    -1.2799 ev

!    total energy              =     -29.85424096 Ry
     total all-electron energy =       -29.854264 Ry
     estimated scf accuracy    <          1.8E-09 Ry
     smearing contrib. (-TS)   =      -0.00147518 Ry
     internal energy E=F+TS    =     -29.85276578 Ry

     The total energy is F=E-TS. E is the sum of the following terms:
     one-electron contribution =     -25.63470557 Ry
     hartree contribution      =       9.41779158 Ry
     xc contribution           =      -6.80987540 Ry
     ewald contribution        =      -6.97026289 Ry
     one-center paw contrib.   =       0.14428649 Ry

     convergence has been achieved in   5 iterations

     Forces acting on atoms (cartesian axes, Ry/au):

     atom    1 type  1   force =    -0.00227670    0.00233281   -0.00083753
     atom    2 type  1   force =     0.00227670   -0.00233281    0.00083753

     Total force =     0.004760     Total SCF correction =     0.000050


     Computing stress (Cartesian axis) and pressure

          total   stress  (Ry/bohr**3)                   (kbar)     P=      -94.89
  -0.00064539  -0.00001179   0.00000384          -94.94       -1.73        0.57
  -0.00001179  -0.00063707  -0.00000452           -1.73      -93.72       -0.66
   0.00000384  -0.00000452  -0.00065274            0.57       -0.66      -96.02


     Writing all to output data dir ./tmp/Li_config_15.save/ :
     XML data file, charge density, pseudopotentials, collected wavefunctions

     init_run     :      0.36s CPU      0.38s WALL (       1 calls)
     electrons    :      2.95s CPU      3.06s WALL (       1 calls)
     forces       :      0.05s CPU      0.06s WALL (       1 calls)
     stress       :      0.28s CPU      0.29s WALL (       1 calls)

     Called by init_run:
     wfcinit      :      0.20s CPU      0.21s WALL (       1 calls)
     potinit      :      0.06s CPU      0.06s WALL (       1 calls)
     hinit0       :      0.07s CPU      0.07s WALL (       1 calls)

     Called by electrons:
     c_bands      :      2.10s CPU      2.18s WALL (       6 calls)
     sum_band     :      0.51s CPU      0.53s WALL (       6 calls)
     v_of_rho     :      0.16s CPU      0.17s WALL (       6 calls)
     newd         :      0.09s CPU      0.11s WALL (       6 calls)
     PAW_pot      :      0.13s CPU      0.13s WALL (       6 calls)
     mix_rho      :      0.01s CPU      0.01s WALL (       6 calls)

     Called by c_bands:
     init_us_2    :      0.07s CPU      0.07s WALL (     540 calls)
     cegterg      :      2.04s CPU      2.11s WALL (     216 calls)

     Called by *egterg:
     cdiaghg      :      0.02s CPU      0.02s WALL (     768 calls)
     h_psi        :      1.91s CPU      1.94s WALL (     840 calls)
     s_psi        :      0.04s CPU      0.04s WALL (     840 calls)
     g_psi        :      0.01s CPU      0.01s WALL (     588 calls)

     Called by h_psi:
     h_psi:calbec :      0.06s CPU      0.07s WALL (     840 calls)
     vloc_psi     :      1.80s CPU      1.81s WALL (     840 calls)
     add_vuspsi   :      0.05s CPU      0.05s WALL (     840 calls)

     General routines
     calbec       :      0.09s CPU      0.11s WALL (    1236 calls)
     fft          :      0.08s CPU      0.08s WALL (      85 calls)
     ffts         :      0.01s CPU      0.01s WALL (      12 calls)
     fftw         :      1.74s CPU      1.75s WALL (    9896 calls)
     interpolate  :      0.01s CPU      0.01s WALL (       6 calls)

     Parallel routines

     PWSCF        :      3.67s CPU      3.84s WALL


   This run was terminated on:   9:11:46  28Jan2025            

=------------------------------------------------------------------------------=
   JOB DONE.
=------------------------------------------------------------------------------=
Note: The following floating-point exceptions are signalling: IEEE_INVALID_FLAG IEEE_DIVIDE_BY_ZERO IEEE_OVERFLOW_FLAG IEEE_UNDERFLOW_FLAG
