[Williams-MacBook-Air.local:93571] shmem: mmap: an error occurred while determining whether or not /var/folders/hy/k_vp1md94sz2dr40dtrs6ln80000gn/T//ompi.Williams-MacBook-Air.501/jf.0/3604480/sm_segment.Williams-MacBook-Air.501.370000.0 could be created.

     Program PWSCF v.7.3.1 starts on 28Jan2025 at  9:10:27 

     This program is part of the open-source Quantum ESPRESSO suite
     for quantum simulation of materials; please cite
         "P. Giannozzi et al., J. Phys.:Condens. Matter 21 395502 (2009);
         "P. Giannozzi et al., J. Phys.:Condens. Matter 29 465901 (2017);
         "P. Giannozzi et al., J. Chem. Phys. 152 154105 (2020);
          URL http://www.quantum-espresso.org", 
     in publications or presentations arising from this work. More details at
     http://www.quantum-espresso.org/quote

     Parallel version (MPI), running on     1 processors

     MPI processes distributed on     1 nodes
     0 MiB available memory on the printing compute node when the environment starts

     Reading input from Li_config_2.in

     Current dimensions of program PWSCF are:
     Max number of different atomic species (ntypx) = 10
     Max number of k-points (npk) =  40000
     Max angular momentum in pseudopotentials (lmaxx) =  4

     Subspace diagonalization in iterative solution of the eigenvalue problem:
     a serial algorithm will be used


     G-vector sticks info
     --------------------
     sticks:   dense  smooth     PW     G-vecs:    dense   smooth      PW
     Sum        2145     861    261                74269    18853    3191

     Using Slab Decomposition



     bravais-lattice index     =            1
     lattice parameter (alat)  =       9.4662  a.u.
     unit-cell volume          =     848.2586 (a.u.)^3
     number of atoms/cell      =            2
     number of atomic types    =            1
     number of electrons       =         6.00
     number of Kohn-Sham states=            7
     kinetic-energy cutoff     =      30.0000  Ry
     charge density cutoff     =     300.0000  Ry
     scf convergence threshold =      1.0E-08
     mixing beta               =       0.7000
     number of iterations used =            8  plain     mixing
     Exchange-correlation= SLA  PW   PBX  PBC
                           (   1   4   3   4   0   0   0)

     celldm(1)=   9.466209  celldm(2)=   0.000000  celldm(3)=   0.000000
     celldm(4)=   0.000000  celldm(5)=   0.000000  celldm(6)=   0.000000

     crystal axes: (cart. coord. in units of alat)
               a(1) = (   1.000000   0.000000   0.000000 )  
               a(2) = (   0.000000   1.000000   0.000000 )  
               a(3) = (   0.000000   0.000000   1.000000 )  

     reciprocal axes: (cart. coord. in units 2 pi/alat)
               b(1) = (  1.000000  0.000000  0.000000 )  
               b(2) = (  0.000000  1.000000  0.000000 )  
               b(3) = (  0.000000  0.000000  1.000000 )  


     PseudoPot. # 1 for Li read from file:
     ../../pseudopotentials/Li.pbe-s-kjpaw_psl.1.0.0.UPF
     MD5 check sum: d3662511b3860c829f7212fdb89d6128
     Pseudo is Projector augmented-wave, Zval =  3.0
     Generated using &quot;atomic&quot; code by A. Dal Corso  v.6.3
     Shape of augmentation charge: PSQ
     Using radial grid of 1017 points,  4 beta functions with: 
                l(1) =   0
                l(2) =   0
                l(3) =   1
                l(4) =   1
     Q(r) pseudized with 0 coefficients 


     atomic species   valence    mass     pseudopotential
     Li                3.00     6.94000     Li( 1.00)

     No symmetry found



   Cartesian axes

     site n.     atom                  positions (alat units)
         1        Li     tau(   1) = (   0.1451060   0.0552540   0.1104190  )
         2        Li     tau(   2) = (   0.4440140   0.4296040   0.5856300  )

     number of k points=    36  Gaussian smearing, width (Ry)=  0.0100
                       cart. coord. in units 2pi/alat
        k(    1) = (   0.0000000   0.0000000   0.0000000), wk =   0.0312500
        k(    2) = (   0.0000000   0.0000000   0.2500000), wk =   0.0625000
        k(    3) = (   0.0000000   0.0000000  -0.5000000), wk =   0.0312500
        k(    4) = (   0.0000000   0.2500000   0.2500000), wk =   0.0625000
        k(    5) = (   0.0000000   0.2500000  -0.5000000), wk =   0.0625000
        k(    6) = (   0.0000000  -0.5000000  -0.5000000), wk =   0.0312500
        k(    7) = (   0.2500000   0.2500000   0.2500000), wk =   0.0625000
        k(    8) = (   0.2500000   0.2500000  -0.5000000), wk =   0.0625000
        k(    9) = (   0.2500000  -0.5000000  -0.5000000), wk =   0.0625000
        k(   10) = (  -0.5000000  -0.5000000  -0.5000000), wk =   0.0312500
        k(   11) = (   0.2500000   0.0000000   0.0000000), wk =   0.0625000
        k(   12) = (   0.0000000   0.2500000   0.0000000), wk =   0.0625000
        k(   13) = (  -0.5000000   0.0000000   0.0000000), wk =   0.0312500
        k(   14) = (   0.0000000  -0.5000000   0.0000000), wk =   0.0312500
        k(   15) = (   0.0000000  -0.2500000   0.2500000), wk =   0.0625000
        k(   16) = (   0.2500000   0.0000000  -0.2500000), wk =   0.0625000
        k(   17) = (  -0.2500000   0.0000000  -0.2500000), wk =   0.0625000
        k(   18) = (   0.2500000  -0.2500000   0.0000000), wk =   0.0625000
        k(   19) = (  -0.2500000  -0.2500000   0.0000000), wk =   0.0625000
        k(   20) = (   0.2500000   0.0000000   0.5000000), wk =   0.0625000
        k(   21) = (  -0.5000000  -0.2500000   0.0000000), wk =   0.0625000
        k(   22) = (   0.0000000  -0.5000000   0.2500000), wk =   0.0625000
        k(   23) = (   0.2500000  -0.5000000   0.0000000), wk =   0.0625000
        k(   24) = (  -0.5000000   0.0000000   0.2500000), wk =   0.0625000
        k(   25) = (  -0.5000000   0.0000000   0.5000000), wk =   0.0312500
        k(   26) = (  -0.5000000   0.5000000   0.0000000), wk =   0.0312500
        k(   27) = (  -0.2500000  -0.2500000   0.2500000), wk =   0.0625000
        k(   28) = (  -0.2500000   0.2500000  -0.2500000), wk =   0.0625000
        k(   29) = (   0.2500000  -0.2500000  -0.2500000), wk =   0.0625000
        k(   30) = (  -0.2500000   0.2500000   0.5000000), wk =   0.0625000
        k(   31) = (  -0.5000000  -0.2500000   0.2500000), wk =   0.0625000
        k(   32) = (   0.5000000  -0.2500000  -0.2500000), wk =   0.0625000
        k(   33) = (  -0.2500000  -0.5000000   0.2500000), wk =   0.0625000
        k(   34) = (  -0.2500000   0.5000000  -0.2500000), wk =   0.0625000
        k(   35) = (  -0.5000000   0.2500000   0.5000000), wk =   0.0625000
        k(   36) = (  -0.5000000   0.5000000   0.2500000), wk =   0.0625000

     Dense  grid:    74269 G-vectors     FFT dimensions: (  54,  54,  54)

     Smooth grid:    18853 G-vectors     FFT dimensions: (  36,  36,  36)

     Estimated max dynamical RAM per process >     108.21 MB

     Initial potential from superposition of free atoms

     starting charge       5.9908, renormalised to       6.0000
     Starting wfcs are   10 randomized atomic wfcs
     Checking if some PAW data can be deallocated... 

     total cpu time spent up to now is        0.4 secs

     Self-consistent Calculation

     iteration #  1     ecut=    30.00 Ry     beta= 0.70
     Davidson diagonalization with overlap
     ethr =  1.00E-02,  avg # of iterations =  2.1

     Threshold (ethr) on eigenvalues was too large:
     Diagonalizing with lowered threshold

     Davidson diagonalization with overlap
     ethr =  2.74E-04,  avg # of iterations =  1.8

     total cpu time spent up to now is        1.4 secs

     total energy              =     -29.84163770 Ry
     estimated scf accuracy    <       0.01724857 Ry

     iteration #  2     ecut=    30.00 Ry     beta= 0.70
     Davidson diagonalization with overlap
     ethr =  2.87E-04,  avg # of iterations =  1.0

     total cpu time spent up to now is        1.9 secs

     total energy              =     -29.84228128 Ry
     estimated scf accuracy    <       0.00085291 Ry

     iteration #  3     ecut=    30.00 Ry     beta= 0.70
     Davidson diagonalization with overlap
     ethr =  1.42E-05,  avg # of iterations =  4.2

     total cpu time spent up to now is        2.5 secs

     total energy              =     -29.84238037 Ry
     estimated scf accuracy    <       0.00000888 Ry

     iteration #  4     ecut=    30.00 Ry     beta= 0.70
     Davidson diagonalization with overlap
     c_bands:  1 eigenvalues not converged
     ethr =  1.48E-07,  avg # of iterations =  4.1

     total cpu time spent up to now is        3.1 secs

     total energy              =     -29.84238344 Ry
     estimated scf accuracy    <       0.00000025 Ry

     iteration #  5     ecut=    30.00 Ry     beta= 0.70
     Davidson diagonalization with overlap
     c_bands:  1 eigenvalues not converged
     ethr =  4.11E-09,  avg # of iterations =  3.0

     total cpu time spent up to now is        3.6 secs

     End of self-consistent calculation

          k = 0.0000 0.0000 0.0000 (  2373 PWs)   bands (ev):

   -50.4309 -50.4269  -3.2571   1.1646   1.3964   1.7857   2.1619

          k = 0.0000 0.0000 0.2500 (  2373 PWs)   bands (ev):

   -50.4355 -50.4235  -2.9334  -0.3891   1.6929   2.0799   2.4151

          k = 0.0000 0.0000-0.5000 (  2360 PWs)   bands (ev):

   -50.4276 -50.4192  -1.9998  -1.9305   2.3123   2.4592   2.7398

          k = 0.0000 0.2500 0.2500 (  2340 PWs)   bands (ev):

   -50.4220 -50.4030  -2.6115  -0.2563   0.2385   2.1622   2.5555

          k = 0.0000 0.2500-0.5000 (  2356 PWs)   bands (ev):

   -50.4278 -50.4147  -1.6940  -1.6204   0.9713   1.0956   2.8598

          k = 0.0000-0.5000-0.5000 (  2360 PWs)   bands (ev):

   -50.4306 -50.4163  -1.0499  -1.0010  -0.2319  -0.1557   3.2573

          k = 0.2500 0.2500 0.2500 (  2332 PWs)   bands (ev):

   -50.4124 -50.4037  -2.2995   0.0377   0.2342   0.7735   2.5503

          k = 0.2500 0.2500-0.5000 (  2360 PWs)   bands (ev):

   -50.4283 -50.4206  -1.3974  -1.3206   1.1769   1.3184   1.5126

          k = 0.2500-0.5000-0.5000 (  2356 PWs)   bands (ev):

   -50.4289 -50.4183  -0.7582  -0.7009   0.0442   0.1307   2.0830

          k =-0.5000-0.5000-0.5000 (  2320 PWs)   bands (ev):

   -50.4094 -50.4011  -0.2472  -0.1808   0.5238   0.6947   1.1668

          k = 0.2500 0.0000 0.0000 (  2373 PWs)   bands (ev):

   -50.4314 -50.4275  -2.9357  -0.2502   1.4354   1.6820   2.7949

          k = 0.0000 0.2500 0.0000 (  2373 PWs)   bands (ev):

   -50.4310 -50.4279  -2.9338  -0.3199   1.4758   2.0105   2.4243

          k =-0.5000 0.0000 0.0000 (  2360 PWs)   bands (ev):

   -50.4249 -50.4218  -2.1867  -1.6422   1.8502   2.0800   3.1445

          k = 0.0000-0.5000 0.0000 (  2360 PWs)   bands (ev):

   -50.4258 -50.4210  -2.1174  -1.7644   2.0319   2.4047   2.7546

          k = 0.0000-0.2500 0.2500 (  2340 PWs)   bands (ev):

   -50.4167 -50.4082  -2.6107  -0.2670   0.2384   2.1947   2.5950

          k = 0.2500 0.0000-0.2500 (  2340 PWs)   bands (ev):

   -50.4167 -50.4082  -2.6123  -0.2157   0.2291   1.9737   2.5692

          k =-0.2500 0.0000-0.2500 (  2340 PWs)   bands (ev):

   -50.4159 -50.4091  -2.6138  -0.2079   0.2335   1.9646   2.5121

          k = 0.2500-0.2500 0.0000 (  2340 PWs)   bands (ev):

   -50.4171 -50.4079  -2.6114  -0.1557   0.2110   1.7343   2.7126

          k =-0.2500-0.2500 0.0000 (  2340 PWs)   bands (ev):

   -50.4155 -50.4095  -2.6156  -0.1418   0.2410   1.7450   2.4610

          k = 0.2500 0.0000 0.5000 (  2356 PWs)   bands (ev):

   -50.4252 -50.4173  -1.6949  -1.6226   1.0191   1.1416   2.7451

          k =-0.5000-0.2500 0.0000 (  2356 PWs)   bands (ev):

   -50.4227 -50.4198  -1.8862  -1.3120   0.6161   1.5419   2.1438

          k = 0.0000-0.5000 0.2500 (  2356 PWs)   bands (ev):

   -50.4257 -50.4168  -1.8175  -1.4420   0.6875   1.3214   2.7943

          k = 0.2500-0.5000 0.0000 (  2356 PWs)   bands (ev):

   -50.4287 -50.4138  -1.8159  -1.4480   0.8058   1.4164   2.2795

          k =-0.5000 0.0000 0.2500 (  2356 PWs)   bands (ev):

   -50.4222 -50.4202  -1.8885  -1.3081   0.5449   1.4863   2.4358

          k =-0.5000 0.0000 0.5000 (  2360 PWs)   bands (ev):

   -50.4244 -50.4226  -1.0778  -1.0193  -0.1809  -0.0751   3.0691

          k =-0.5000 0.5000 0.0000 (  2360 PWs)   bands (ev):

   -50.4262 -50.4207  -1.1633  -0.8801  -0.3672   0.1541   2.6187

          k =-0.2500-0.2500 0.2500 (  2332 PWs)   bands (ev):

   -50.4136 -50.4026  -2.2967   0.0210   0.2340   0.7640   2.6459

          k =-0.2500 0.2500-0.2500 (  2332 PWs)   bands (ev):

   -50.4109 -50.4053  -2.2917   0.0316   0.2011   0.7401   2.8156

          k = 0.2500-0.2500-0.2500 (  2332 PWs)   bands (ev):

   -50.4169 -50.3994  -2.2918   0.0422   0.1908   0.7380   2.8271

          k =-0.2500 0.2500 0.5000 (  2360 PWs)   bands (ev):

   -50.4313 -50.4176  -1.3856  -1.3086   0.9500   1.0620   1.8041

          k =-0.5000-0.2500 0.2500 (  2360 PWs)   bands (ev):

   -50.4285 -50.4203  -1.5902  -0.9723   0.5399   1.2557   1.7183

          k = 0.5000-0.2500-0.2500 (  2360 PWs)   bands (ev):

   -50.4300 -50.4188  -1.5922  -0.9744   0.5658   1.2614   1.6922

          k =-0.2500-0.5000 0.2500 (  2360 PWs)   bands (ev):

   -50.4321 -50.4168  -1.5180  -1.1234   0.7382   1.2351   1.7454

          k =-0.2500 0.5000-0.2500 (  2360 PWs)   bands (ev):

   -50.4272 -50.4217  -1.5201  -1.1265   0.7752   1.2583   1.7008

          k =-0.5000 0.2500 0.5000 (  2356 PWs)   bands (ev):

   -50.4284 -50.4187  -0.7889  -0.7192   0.1067   0.2262   1.9195

          k =-0.5000 0.5000 0.2500 (  2356 PWs)   bands (ev):

   -50.4292 -50.4180  -0.8910  -0.5371  -0.1201   0.4863   1.6285

     the Fermi energy is    -1.3764 ev

!    total energy              =     -29.84238366 Ry
     total all-electron energy =       -29.842406 Ry
     estimated scf accuracy    <          3.5E-09 Ry
     smearing contrib. (-TS)   =      -0.00136985 Ry
     internal energy E=F+TS    =     -29.84101381 Ry

     The total energy is F=E-TS. E is the sum of the following terms:
     one-electron contribution =     -26.09761209 Ry
     hartree contribution      =       9.60675069 Ry
     xc contribution           =      -6.80076069 Ry
     ewald contribution        =      -6.69365178 Ry
     one-center paw contrib.   =       0.14426005 Ry

     convergence has been achieved in   5 iterations

     Forces acting on atoms (cartesian axes, Ry/au):

     atom    1 type  1   force =    -0.00189518   -0.00243831   -0.00073893
     atom    2 type  1   force =     0.00189518    0.00243831    0.00073893

     Total force =     0.004491     Total SCF correction =     0.000021


     Computing stress (Cartesian axis) and pressure

          total   stress  (Ry/bohr**3)                   (kbar)     P=      -86.34
  -0.00057902   0.00001268   0.00000375          -85.18        1.87        0.55
   0.00001268  -0.00058712   0.00000383            1.87      -86.37        0.56
   0.00000375   0.00000383  -0.00059456            0.55        0.56      -87.46


     Writing all to output data dir ./tmp/Li_config_2.save/ :
     XML data file, charge density, pseudopotentials, collected wavefunctions

     init_run     :      0.37s CPU      0.39s WALL (       1 calls)
     electrons    :      3.05s CPU      3.18s WALL (       1 calls)
     forces       :      0.05s CPU      0.06s WALL (       1 calls)
     stress       :      0.29s CPU      0.31s WALL (       1 calls)

     Called by init_run:
     wfcinit      :      0.21s CPU      0.22s WALL (       1 calls)
     potinit      :      0.06s CPU      0.06s WALL (       1 calls)
     hinit0       :      0.07s CPU      0.07s WALL (       1 calls)

     Called by electrons:
     c_bands      :      2.18s CPU      2.27s WALL (       6 calls)
     sum_band     :      0.52s CPU      0.55s WALL (       6 calls)
     v_of_rho     :      0.16s CPU      0.17s WALL (       6 calls)
     newd         :      0.10s CPU      0.12s WALL (       6 calls)
     PAW_pot      :      0.13s CPU      0.13s WALL (       6 calls)
     mix_rho      :      0.01s CPU      0.01s WALL (       6 calls)

     Called by c_bands:
     init_us_2    :      0.07s CPU      0.08s WALL (     540 calls)
     cegterg      :      2.11s CPU      2.19s WALL (     216 calls)

     Called by *egterg:
     cdiaghg      :      0.02s CPU      0.02s WALL (     763 calls)
     h_psi        :      1.97s CPU      2.01s WALL (     835 calls)
     s_psi        :      0.05s CPU      0.06s WALL (     835 calls)
     g_psi        :      0.01s CPU      0.01s WALL (     583 calls)

     Called by h_psi:
     h_psi:calbec :      0.07s CPU      0.08s WALL (     835 calls)
     vloc_psi     :      1.85s CPU      1.86s WALL (     835 calls)
     add_vuspsi   :      0.05s CPU      0.06s WALL (     835 calls)

     General routines
     calbec       :      0.10s CPU      0.13s WALL (    1231 calls)
     fft          :      0.08s CPU      0.08s WALL (      85 calls)
     ffts         :      0.01s CPU      0.01s WALL (      12 calls)
     fftw         :      1.79s CPU      1.80s WALL (    9852 calls)
     interpolate  :      0.01s CPU      0.01s WALL (       6 calls)

     Parallel routines

     PWSCF        :      3.80s CPU      4.02s WALL


   This run was terminated on:   9:10:31  28Jan2025            

=------------------------------------------------------------------------------=
   JOB DONE.
=------------------------------------------------------------------------------=
Note: The following floating-point exceptions are signalling: IEEE_INVALID_FLAG IEEE_DIVIDE_BY_ZERO IEEE_OVERFLOW_FLAG IEEE_UNDERFLOW_FLAG
