[Williams-MacBook-Air.local:93602] shmem: mmap: an error occurred while determining whether or not /var/folders/hy/k_vp1md94sz2dr40dtrs6ln80000gn/T//ompi.Williams-MacBook-Air.501/jf.0/1179320320/sm_segment.Williams-MacBook-Air.501.464b0000.0 could be created.

     Program PWSCF v.7.3.1 starts on 28Jan2025 at  9:11: 8 

     This program is part of the open-source Quantum ESPRESSO suite
     for quantum simulation of materials; please cite
         "P. Giannozzi et al., J. Phys.:Condens. Matter 21 395502 (2009);
         "P. Giannozzi et al., J. Phys.:Condens. Matter 29 465901 (2017);
         "P. Giannozzi et al., J. Chem. Phys. 152 154105 (2020);
          URL http://www.quantum-espresso.org", 
     in publications or presentations arising from this work. More details at
     http://www.quantum-espresso.org/quote

     Parallel version (MPI), running on     1 processors

     MPI processes distributed on     1 nodes
     0 MiB available memory on the printing compute node when the environment starts

     Reading input from Li_config_10.in

     Current dimensions of program PWSCF are:
     Max number of different atomic species (ntypx) = 10
     Max number of k-points (npk) =  40000
     Max angular momentum in pseudopotentials (lmaxx) =  4

     Subspace diagonalization in iterative solution of the eigenvalue problem:
     a serial algorithm will be used


     G-vector sticks info
     --------------------
     sticks:   dense  smooth     PW     G-vecs:    dense   smooth      PW
     Sum        2529    1005    293                95049    23871    3911

     Using Slab Decomposition



     bravais-lattice index     =            1
     lattice parameter (alat)  =      10.2721  a.u.
     unit-cell volume          =    1083.8729 (a.u.)^3
     number of atoms/cell      =            2
     number of atomic types    =            1
     number of electrons       =         6.00
     number of Kohn-Sham states=            7
     kinetic-energy cutoff     =      30.0000  Ry
     charge density cutoff     =     300.0000  Ry
     scf convergence threshold =      1.0E-08
     mixing beta               =       0.7000
     number of iterations used =            8  plain     mixing
     Exchange-correlation= SLA  PW   PBX  PBC
                           (   1   4   3   4   0   0   0)

     celldm(1)=  10.272105  celldm(2)=   0.000000  celldm(3)=   0.000000
     celldm(4)=   0.000000  celldm(5)=   0.000000  celldm(6)=   0.000000

     crystal axes: (cart. coord. in units of alat)
               a(1) = (   1.000000   0.000000   0.000000 )  
               a(2) = (   0.000000   1.000000   0.000000 )  
               a(3) = (   0.000000   0.000000   1.000000 )  

     reciprocal axes: (cart. coord. in units 2 pi/alat)
               b(1) = (  1.000000  0.000000  0.000000 )  
               b(2) = (  0.000000  1.000000  0.000000 )  
               b(3) = (  0.000000  0.000000  1.000000 )  


     PseudoPot. # 1 for Li read from file:
     ../../pseudopotentials/Li.pbe-s-kjpaw_psl.1.0.0.UPF
     MD5 check sum: d3662511b3860c829f7212fdb89d6128
     Pseudo is Projector augmented-wave, Zval =  3.0
     Generated using &quot;atomic&quot; code by A. Dal Corso  v.6.3
     Shape of augmentation charge: PSQ
     Using radial grid of 1017 points,  4 beta functions with: 
                l(1) =   0
                l(2) =   0
                l(3) =   1
                l(4) =   1
     Q(r) pseudized with 0 coefficients 


     atomic species   valence    mass     pseudopotential
     Li                3.00     6.94000     Li( 1.00)

     No symmetry found



   Cartesian axes

     site n.     atom                  positions (alat units)
         1        Li     tau(   1) = (   0.0513530   0.0040590   0.9102080  )
         2        Li     tau(   2) = (   0.3916040   0.6347940   0.5432360  )

     number of k points=    36  Gaussian smearing, width (Ry)=  0.0100
                       cart. coord. in units 2pi/alat
        k(    1) = (   0.0000000   0.0000000   0.0000000), wk =   0.0312500
        k(    2) = (   0.0000000   0.0000000   0.2500000), wk =   0.0625000
        k(    3) = (   0.0000000   0.0000000  -0.5000000), wk =   0.0312500
        k(    4) = (   0.0000000   0.2500000   0.2500000), wk =   0.0625000
        k(    5) = (   0.0000000   0.2500000  -0.5000000), wk =   0.0625000
        k(    6) = (   0.0000000  -0.5000000  -0.5000000), wk =   0.0312500
        k(    7) = (   0.2500000   0.2500000   0.2500000), wk =   0.0625000
        k(    8) = (   0.2500000   0.2500000  -0.5000000), wk =   0.0625000
        k(    9) = (   0.2500000  -0.5000000  -0.5000000), wk =   0.0625000
        k(   10) = (  -0.5000000  -0.5000000  -0.5000000), wk =   0.0312500
        k(   11) = (   0.2500000   0.0000000   0.0000000), wk =   0.0625000
        k(   12) = (   0.0000000   0.2500000   0.0000000), wk =   0.0625000
        k(   13) = (  -0.5000000   0.0000000   0.0000000), wk =   0.0312500
        k(   14) = (   0.0000000  -0.5000000   0.0000000), wk =   0.0312500
        k(   15) = (   0.0000000  -0.2500000   0.2500000), wk =   0.0625000
        k(   16) = (   0.2500000   0.0000000  -0.2500000), wk =   0.0625000
        k(   17) = (  -0.2500000   0.0000000  -0.2500000), wk =   0.0625000
        k(   18) = (   0.2500000  -0.2500000   0.0000000), wk =   0.0625000
        k(   19) = (  -0.2500000  -0.2500000   0.0000000), wk =   0.0625000
        k(   20) = (   0.2500000   0.0000000   0.5000000), wk =   0.0625000
        k(   21) = (  -0.5000000  -0.2500000   0.0000000), wk =   0.0625000
        k(   22) = (   0.0000000  -0.5000000   0.2500000), wk =   0.0625000
        k(   23) = (   0.2500000  -0.5000000   0.0000000), wk =   0.0625000
        k(   24) = (  -0.5000000   0.0000000   0.2500000), wk =   0.0625000
        k(   25) = (  -0.5000000   0.0000000   0.5000000), wk =   0.0312500
        k(   26) = (  -0.5000000   0.5000000   0.0000000), wk =   0.0312500
        k(   27) = (  -0.2500000  -0.2500000   0.2500000), wk =   0.0625000
        k(   28) = (  -0.2500000   0.2500000  -0.2500000), wk =   0.0625000
        k(   29) = (   0.2500000  -0.2500000  -0.2500000), wk =   0.0625000
        k(   30) = (  -0.2500000   0.2500000   0.5000000), wk =   0.0625000
        k(   31) = (  -0.5000000  -0.2500000   0.2500000), wk =   0.0625000
        k(   32) = (   0.5000000  -0.2500000  -0.2500000), wk =   0.0625000
        k(   33) = (  -0.2500000  -0.5000000   0.2500000), wk =   0.0625000
        k(   34) = (  -0.2500000   0.5000000  -0.2500000), wk =   0.0625000
        k(   35) = (  -0.5000000   0.2500000   0.5000000), wk =   0.0625000
        k(   36) = (  -0.5000000   0.5000000   0.2500000), wk =   0.0625000

     Dense  grid:    95049 G-vectors     FFT dimensions: (  60,  60,  60)

     Smooth grid:    23871 G-vectors     FFT dimensions: (  36,  36,  36)

     Estimated max dynamical RAM per process >     139.35 MB

     Initial potential from superposition of free atoms

     starting charge       5.9908, renormalised to       6.0000
     Starting wfcs are   10 randomized atomic wfcs
     Checking if some PAW data can be deallocated... 

     total cpu time spent up to now is        0.5 secs

     Self-consistent Calculation

     iteration #  1     ecut=    30.00 Ry     beta= 0.70
     Davidson diagonalization with overlap
     ethr =  1.00E-02,  avg # of iterations =  2.0

     Threshold (ethr) on eigenvalues was too large:
     Diagonalizing with lowered threshold

     Davidson diagonalization with overlap
     ethr =  3.43E-04,  avg # of iterations =  1.4

     total cpu time spent up to now is        1.6 secs

     total energy              =     -29.81365251 Ry
     estimated scf accuracy    <       0.02179717 Ry

     iteration #  2     ecut=    30.00 Ry     beta= 0.70
     Davidson diagonalization with overlap
     ethr =  3.63E-04,  avg # of iterations =  1.0

     total cpu time spent up to now is        2.1 secs

     total energy              =     -29.81472787 Ry
     estimated scf accuracy    <       0.00093116 Ry

     iteration #  3     ecut=    30.00 Ry     beta= 0.70
     Davidson diagonalization with overlap
     ethr =  1.55E-05,  avg # of iterations =  3.2

     total cpu time spent up to now is        2.7 secs

     total energy              =     -29.81485051 Ry
     estimated scf accuracy    <       0.00002569 Ry

     iteration #  4     ecut=    30.00 Ry     beta= 0.70
     Davidson diagonalization with overlap
     ethr =  4.28E-07,  avg # of iterations =  3.9

     total cpu time spent up to now is        3.4 secs

     total energy              =     -29.81485700 Ry
     estimated scf accuracy    <       0.00000147 Ry

     iteration #  5     ecut=    30.00 Ry     beta= 0.70
     Davidson diagonalization with overlap
     ethr =  2.44E-08,  avg # of iterations =  2.0

     total cpu time spent up to now is        4.0 secs

     End of self-consistent calculation

          k = 0.0000 0.0000 0.0000 (  2969 PWs)   bands (ev):

   -50.9711 -50.9688  -3.2264   0.6384   0.9109   1.0003   1.5016

          k = 0.0000 0.0000 0.2500 (  3006 PWs)   bands (ev):

   -50.9862 -50.9825  -2.9522  -0.6827   0.9544   1.2283   1.6731

          k = 0.0000 0.0000-0.5000 (  2946 PWs)   bands (ev):

   -50.9617 -50.9540  -2.3007  -1.8679   1.2712   1.6558   1.9036

          k = 0.0000 0.2500 0.2500 (  3015 PWs)   bands (ev):

   -50.9929 -50.9831  -2.6811  -0.4968  -0.3110   1.2677   1.6646

          k = 0.0000 0.2500-0.5000 (  3004 PWs)   bands (ev):

   -50.9896 -50.9760  -2.0421  -1.5918   0.1524   0.7469   1.7789

          k = 0.0000-0.5000-0.5000 (  3016 PWs)   bands (ev):

   -50.9905 -50.9849  -1.4583  -1.0967  -0.8097  -0.3758   2.0768

          k = 0.2500 0.2500 0.2500 (  2998 PWs)   bands (ev):

   -50.9817 -50.9782  -2.4059  -0.2809  -0.2270   0.0466   1.8576

          k = 0.2500 0.2500-0.5000 (  2992 PWs)   bands (ev):

   -50.9846 -50.9698  -1.7812  -1.3153   0.1979   0.5172   1.0495

          k = 0.2500-0.5000-0.5000 (  3024 PWs)   bands (ev):

   -51.0008 -50.9818  -1.2188  -0.8241  -0.5701  -0.1120   1.0084

          k =-0.5000-0.5000-0.5000 (  3016 PWs)   bands (ev):

   -51.0010 -50.9756  -0.7551  -0.3225  -0.2147   0.2302   0.4283

          k = 0.2500 0.0000 0.0000 (  3006 PWs)   bands (ev):

   -50.9882 -50.9806  -2.9535  -0.6550   0.9176   1.1509   1.7406

          k = 0.0000 0.2500 0.0000 (  3006 PWs)   bands (ev):

   -50.9867 -50.9821  -2.9521  -0.6851   0.9593   1.2327   1.6702

          k =-0.5000 0.0000 0.0000 (  2946 PWs)   bands (ev):

   -50.9595 -50.9563  -2.3310  -1.8160   1.2191   1.5501   2.0104

          k = 0.0000-0.5000 0.0000 (  2946 PWs)   bands (ev):

   -50.9618 -50.9539  -2.2980  -1.8724   1.2760   1.6644   1.8963

          k = 0.0000-0.2500 0.2500 (  3015 PWs)   bands (ev):

   -50.9952 -50.9808  -2.6770  -0.5518  -0.2974   1.3406   1.8896

          k = 0.2500 0.0000-0.2500 (  3015 PWs)   bands (ev):

   -50.9931 -50.9829  -2.6832  -0.4783  -0.3045   1.2022   1.6505

          k =-0.2500 0.0000-0.2500 (  3015 PWs)   bands (ev):

   -50.9895 -50.9865  -2.6785  -0.5316  -0.2937   1.2460   1.8823

          k = 0.2500-0.2500 0.0000 (  3015 PWs)   bands (ev):

   -50.9931 -50.9830  -2.6831  -0.4801  -0.3047   1.2079   1.6512

          k =-0.2500-0.2500 0.0000 (  3015 PWs)   bands (ev):

   -50.9902 -50.9858  -2.6784  -0.5334  -0.2938   1.2535   1.8808

          k = 0.2500 0.0000 0.5000 (  3004 PWs)   bands (ev):

   -50.9853 -50.9803  -2.0435  -1.5952   0.1836   0.7696   1.6788

          k =-0.5000-0.2500 0.0000 (  3004 PWs)   bands (ev):

   -50.9854 -50.9802  -2.0729  -1.5379   0.1096   0.8103   1.6585

          k = 0.0000-0.5000 0.2500 (  3004 PWs)   bands (ev):

   -50.9894 -50.9762  -2.0395  -1.5967   0.1587   0.7430   1.7807

          k = 0.2500-0.5000 0.0000 (  3004 PWs)   bands (ev):

   -50.9853 -50.9803  -2.0408  -1.5999   0.1873   0.7640   1.6888

          k =-0.5000 0.0000 0.2500 (  3004 PWs)   bands (ev):

   -50.9851 -50.9804  -2.0729  -1.5382   0.1122   0.8120   1.6502

          k =-0.5000 0.0000 0.5000 (  3016 PWs)   bands (ev):

   -50.9899 -50.9855  -1.4868  -1.0861  -0.8071  -0.3126   1.9579

          k =-0.5000 0.5000 0.0000 (  3016 PWs)   bands (ev):

   -50.9892 -50.9862  -1.4845  -1.0890  -0.8051  -0.3178   1.9679

          k =-0.2500-0.2500 0.2500 (  2998 PWs)   bands (ev):

   -50.9828 -50.9770  -2.4064  -0.3108  -0.1946   0.0473   1.8398

          k =-0.2500 0.2500-0.2500 (  2998 PWs)   bands (ev):

   -50.9826 -50.9773  -2.4064  -0.3091  -0.1966   0.0472   1.8417

          k = 0.2500-0.2500-0.2500 (  2998 PWs)   bands (ev):

   -50.9917 -50.9684  -2.4174  -0.2291  -0.1910   0.0524   1.5185

          k =-0.2500 0.2500 0.5000 (  2992 PWs)   bands (ev):

   -50.9795 -50.9748  -1.7893  -1.3228   0.3383   0.5312   0.8967

          k =-0.5000-0.2500 0.2500 (  2992 PWs)   bands (ev):

   -50.9816 -50.9728  -1.8108  -1.2563   0.1399   0.5021   1.0522

          k = 0.5000-0.2500-0.2500 (  2992 PWs)   bands (ev):

   -50.9792 -50.9750  -1.8183  -1.2628   0.2616   0.5014   0.9266

          k =-0.2500-0.5000 0.2500 (  2992 PWs)   bands (ev):

   -50.9797 -50.9745  -1.7866  -1.3279   0.3458   0.5337   0.8937

          k =-0.2500 0.5000-0.2500 (  2992 PWs)   bands (ev):

   -50.9844 -50.9699  -1.7785  -1.3204   0.2029   0.5182   1.0494

          k =-0.5000 0.2500 0.5000 (  3024 PWs)   bands (ev):

   -50.9942 -50.9884  -1.2459  -0.8057  -0.5678  -0.0441   0.9269

          k =-0.5000 0.5000 0.2500 (  3024 PWs)   bands (ev):

   -50.9946 -50.9880  -1.2436  -0.8097  -0.5652  -0.0497   0.9337

     the Fermi energy is    -1.5657 ev

!    total energy              =     -29.81485763 Ry
     total all-electron energy =       -29.814880 Ry
     estimated scf accuracy    <          8.3E-09 Ry
     smearing contrib. (-TS)   =      -0.00128438 Ry
     internal energy E=F+TS    =     -29.81357325 Ry

     The total energy is F=E-TS. E is the sum of the following terms:
     one-electron contribution =     -27.00987707 Ry
     hartree contribution      =       9.94900852 Ry
     xc contribution           =      -6.76943619 Ry
     ewald contribution        =      -6.12746914 Ry
     one-center paw contrib.   =       0.14420062 Ry

     convergence has been achieved in   5 iterations

     Forces acting on atoms (cartesian axes, Ry/au):

     atom    1 type  1   force =     0.00062235   -0.00026863   -0.00029066
     atom    2 type  1   force =    -0.00062235    0.00026863    0.00029066

     Total force =     0.001043     Total SCF correction =     0.000016


     Computing stress (Cartesian axis) and pressure

          total   stress  (Ry/bohr**3)                   (kbar)     P=      -68.02
  -0.00045983  -0.00000531  -0.00000530          -67.64       -0.78       -0.78
  -0.00000531  -0.00046375   0.00000552           -0.78      -68.22        0.81
  -0.00000530   0.00000552  -0.00046349           -0.78        0.81      -68.18


     Writing all to output data dir ./tmp/Li_config_10.save/ :
     XML data file, charge density, pseudopotentials, collected wavefunctions

     init_run     :      0.42s CPU      0.44s WALL (       1 calls)
     electrons    :      3.33s CPU      3.53s WALL (       1 calls)
     forces       :      0.07s CPU      0.08s WALL (       1 calls)
     stress       :      0.38s CPU      0.40s WALL (       1 calls)

     Called by init_run:
     wfcinit      :      0.24s CPU      0.24s WALL (       1 calls)
     potinit      :      0.07s CPU      0.08s WALL (       1 calls)
     hinit0       :      0.07s CPU      0.07s WALL (       1 calls)

     Called by electrons:
     c_bands      :      2.28s CPU      2.42s WALL (       6 calls)
     sum_band     :      0.61s CPU      0.64s WALL (       6 calls)
     v_of_rho     :      0.23s CPU      0.24s WALL (       6 calls)
     newd         :      0.13s CPU      0.15s WALL (       6 calls)
     PAW_pot      :      0.13s CPU      0.13s WALL (       6 calls)
     mix_rho      :      0.02s CPU      0.02s WALL (       6 calls)

     Called by c_bands:
     init_us_2    :      0.09s CPU      0.10s WALL (     540 calls)
     cegterg      :      2.19s CPU      2.32s WALL (     216 calls)

     Called by *egterg:
     cdiaghg      :      0.02s CPU      0.02s WALL (     665 calls)
     h_psi        :      2.03s CPU      2.09s WALL (     737 calls)
     s_psi        :      0.05s CPU      0.06s WALL (     737 calls)
     g_psi        :      0.01s CPU      0.01s WALL (     485 calls)

     Called by h_psi:
     h_psi:calbec :      0.07s CPU      0.09s WALL (     737 calls)
     vloc_psi     :      1.90s CPU      1.92s WALL (     737 calls)
     add_vuspsi   :      0.06s CPU      0.07s WALL (     737 calls)

     General routines
     calbec       :      0.12s CPU      0.15s WALL (    1133 calls)
     fft          :      0.13s CPU      0.13s WALL (      85 calls)
     ffts         :      0.01s CPU      0.01s WALL (      12 calls)
     fftw         :      1.78s CPU      1.79s WALL (    9584 calls)
     interpolate  :      0.01s CPU      0.01s WALL (       6 calls)

     Parallel routines

     PWSCF        :      4.24s CPU      4.54s WALL


   This run was terminated on:   9:11:12  28Jan2025            

=------------------------------------------------------------------------------=
   JOB DONE.
=------------------------------------------------------------------------------=
Note: The following floating-point exceptions are signalling: IEEE_INVALID_FLAG IEEE_DIVIDE_BY_ZERO IEEE_OVERFLOW_FLAG IEEE_UNDERFLOW_FLAG
