[Williams-MacBook-Air.local:93728] shmem: mmap: an error occurred while determining whether or not /var/folders/hy/k_vp1md94sz2dr40dtrs6ln80000gn/T//ompi.Williams-MacBook-Air.501/jf.0/2374238208/sm_segment.Williams-MacBook-Air.501.8d840000.0 could be created.

     Program PWSCF v.7.3.1 starts on 28Jan2025 at  9:13:10 

     This program is part of the open-source Quantum ESPRESSO suite
     for quantum simulation of materials; please cite
         "P. Giannozzi et al., J. Phys.:Condens. Matter 21 395502 (2009);
         "P. Giannozzi et al., J. Phys.:Condens. Matter 29 465901 (2017);
         "P. Giannozzi et al., J. Chem. Phys. 152 154105 (2020);
          URL http://www.quantum-espresso.org", 
     in publications or presentations arising from this work. More details at
     http://www.quantum-espresso.org/quote

     Parallel version (MPI), running on     1 processors

     MPI processes distributed on     1 nodes
     0 MiB available memory on the printing compute node when the environment starts

     Reading input from Li_config_29.in

     Current dimensions of program PWSCF are:
     Max number of different atomic species (ntypx) = 10
     Max number of k-points (npk) =  40000
     Max angular momentum in pseudopotentials (lmaxx) =  4

     Subspace diagonalization in iterative solution of the eigenvalue problem:
     a serial algorithm will be used


     G-vector sticks info
     --------------------
     sticks:   dense  smooth     PW     G-vecs:    dense   smooth      PW
     Sum        2217     877    277                78205    19597    3287

     Using Slab Decomposition



     bravais-lattice index     =            1
     lattice parameter (alat)  =       9.6117  a.u.
     unit-cell volume          =     887.9656 (a.u.)^3
     number of atoms/cell      =            2
     number of atomic types    =            1
     number of electrons       =         6.00
     number of Kohn-Sham states=            7
     kinetic-energy cutoff     =      30.0000  Ry
     charge density cutoff     =     300.0000  Ry
     scf convergence threshold =      1.0E-08
     mixing beta               =       0.7000
     number of iterations used =            8  plain     mixing
     Exchange-correlation= SLA  PW   PBX  PBC
                           (   1   4   3   4   0   0   0)

     celldm(1)=   9.611667  celldm(2)=   0.000000  celldm(3)=   0.000000
     celldm(4)=   0.000000  celldm(5)=   0.000000  celldm(6)=   0.000000

     crystal axes: (cart. coord. in units of alat)
               a(1) = (   1.000000   0.000000   0.000000 )  
               a(2) = (   0.000000   1.000000   0.000000 )  
               a(3) = (   0.000000   0.000000   1.000000 )  

     reciprocal axes: (cart. coord. in units 2 pi/alat)
               b(1) = (  1.000000  0.000000  0.000000 )  
               b(2) = (  0.000000  1.000000  0.000000 )  
               b(3) = (  0.000000  0.000000  1.000000 )  


     PseudoPot. # 1 for Li read from file:
     ../../pseudopotentials/Li.pbe-s-kjpaw_psl.1.0.0.UPF
     MD5 check sum: d3662511b3860c829f7212fdb89d6128
     Pseudo is Projector augmented-wave, Zval =  3.0
     Generated using &quot;atomic&quot; code by A. Dal Corso  v.6.3
     Shape of augmentation charge: PSQ
     Using radial grid of 1017 points,  4 beta functions with: 
                l(1) =   0
                l(2) =   0
                l(3) =   1
                l(4) =   1
     Q(r) pseudized with 0 coefficients 


     atomic species   valence    mass     pseudopotential
     Li                3.00     6.94000     Li( 1.00)

     No symmetry found



   Cartesian axes

     site n.     atom                  positions (alat units)
         1        Li     tau(   1) = (   0.8907510   0.8517130   0.0713440  )
         2        Li     tau(   2) = (   0.4897910   0.5843260   0.3976770  )

     number of k points=    36  Gaussian smearing, width (Ry)=  0.0100
                       cart. coord. in units 2pi/alat
        k(    1) = (   0.0000000   0.0000000   0.0000000), wk =   0.0312500
        k(    2) = (   0.0000000   0.0000000   0.2500000), wk =   0.0625000
        k(    3) = (   0.0000000   0.0000000  -0.5000000), wk =   0.0312500
        k(    4) = (   0.0000000   0.2500000   0.2500000), wk =   0.0625000
        k(    5) = (   0.0000000   0.2500000  -0.5000000), wk =   0.0625000
        k(    6) = (   0.0000000  -0.5000000  -0.5000000), wk =   0.0312500
        k(    7) = (   0.2500000   0.2500000   0.2500000), wk =   0.0625000
        k(    8) = (   0.2500000   0.2500000  -0.5000000), wk =   0.0625000
        k(    9) = (   0.2500000  -0.5000000  -0.5000000), wk =   0.0625000
        k(   10) = (  -0.5000000  -0.5000000  -0.5000000), wk =   0.0312500
        k(   11) = (   0.2500000   0.0000000   0.0000000), wk =   0.0625000
        k(   12) = (   0.0000000   0.2500000   0.0000000), wk =   0.0625000
        k(   13) = (  -0.5000000   0.0000000   0.0000000), wk =   0.0312500
        k(   14) = (   0.0000000  -0.5000000   0.0000000), wk =   0.0312500
        k(   15) = (   0.0000000  -0.2500000   0.2500000), wk =   0.0625000
        k(   16) = (   0.2500000   0.0000000  -0.2500000), wk =   0.0625000
        k(   17) = (  -0.2500000   0.0000000  -0.2500000), wk =   0.0625000
        k(   18) = (   0.2500000  -0.2500000   0.0000000), wk =   0.0625000
        k(   19) = (  -0.2500000  -0.2500000   0.0000000), wk =   0.0625000
        k(   20) = (   0.2500000   0.0000000   0.5000000), wk =   0.0625000
        k(   21) = (  -0.5000000  -0.2500000   0.0000000), wk =   0.0625000
        k(   22) = (   0.0000000  -0.5000000   0.2500000), wk =   0.0625000
        k(   23) = (   0.2500000  -0.5000000   0.0000000), wk =   0.0625000
        k(   24) = (  -0.5000000   0.0000000   0.2500000), wk =   0.0625000
        k(   25) = (  -0.5000000   0.0000000   0.5000000), wk =   0.0312500
        k(   26) = (  -0.5000000   0.5000000   0.0000000), wk =   0.0312500
        k(   27) = (  -0.2500000  -0.2500000   0.2500000), wk =   0.0625000
        k(   28) = (  -0.2500000   0.2500000  -0.2500000), wk =   0.0625000
        k(   29) = (   0.2500000  -0.2500000  -0.2500000), wk =   0.0625000
        k(   30) = (  -0.2500000   0.2500000   0.5000000), wk =   0.0625000
        k(   31) = (  -0.5000000  -0.2500000   0.2500000), wk =   0.0625000
        k(   32) = (   0.5000000  -0.2500000  -0.2500000), wk =   0.0625000
        k(   33) = (  -0.2500000  -0.5000000   0.2500000), wk =   0.0625000
        k(   34) = (  -0.2500000   0.5000000  -0.2500000), wk =   0.0625000
        k(   35) = (  -0.5000000   0.2500000   0.5000000), wk =   0.0625000
        k(   36) = (  -0.5000000   0.5000000   0.2500000), wk =   0.0625000

     Dense  grid:    78205 G-vectors     FFT dimensions: (  54,  54,  54)

     Smooth grid:    19597 G-vectors     FFT dimensions: (  36,  36,  36)

     Estimated max dynamical RAM per process >     113.29 MB

     Initial potential from superposition of free atoms

     starting charge       5.9908, renormalised to       6.0000
     Starting wfcs are   10 randomized atomic wfcs
     Checking if some PAW data can be deallocated... 

     total cpu time spent up to now is        0.4 secs

     Self-consistent Calculation

     iteration #  1     ecut=    30.00 Ry     beta= 0.70
     Davidson diagonalization with overlap
     ethr =  1.00E-02,  avg # of iterations =  2.0

     Threshold (ethr) on eigenvalues was too large:
     Diagonalizing with lowered threshold

     Davidson diagonalization with overlap
     ethr =  3.19E-04,  avg # of iterations =  1.6

     total cpu time spent up to now is        1.4 secs

     total energy              =     -29.83214362 Ry
     estimated scf accuracy    <       0.02023484 Ry

     iteration #  2     ecut=    30.00 Ry     beta= 0.70
     Davidson diagonalization with overlap
     ethr =  3.37E-04,  avg # of iterations =  1.0

     total cpu time spent up to now is        1.9 secs

     total energy              =     -29.83296568 Ry
     estimated scf accuracy    <       0.00086641 Ry

     iteration #  3     ecut=    30.00 Ry     beta= 0.70
     Davidson diagonalization with overlap
     ethr =  1.44E-05,  avg # of iterations =  4.4

     total cpu time spent up to now is        2.6 secs

     total energy              =     -29.83306998 Ry
     estimated scf accuracy    <       0.00001506 Ry

     iteration #  4     ecut=    30.00 Ry     beta= 0.70
     Davidson diagonalization with overlap
     c_bands:  1 eigenvalues not converged
     c_bands:  1 eigenvalues not converged
     c_bands:  1 eigenvalues not converged
     ethr =  2.51E-07,  avg # of iterations =  4.6

     total cpu time spent up to now is        3.2 secs

     total energy              =     -29.83307404 Ry
     estimated scf accuracy    <       0.00000088 Ry

     iteration #  5     ecut=    30.00 Ry     beta= 0.70
     Davidson diagonalization with overlap
     ethr =  1.47E-08,  avg # of iterations =  2.3

     total cpu time spent up to now is        3.7 secs

     End of self-consistent calculation

          k = 0.0000 0.0000 0.0000 (  2517 PWs)   bands (ev):

   -50.4837 -50.4795  -3.2604   0.9770   1.3971   1.7882   1.8237

          k = 0.0000 0.0000 0.2500 (  2485 PWs)   bands (ev):

   -50.4674 -50.4600  -2.9504  -0.3999   1.2703   1.9601   2.0940

          k = 0.0000 0.0000-0.5000 (  2416 PWs)   bands (ev):

   -50.4278 -50.4271  -2.2199  -1.7330   1.6329   2.3100   2.4529

          k = 0.0000 0.2500 0.2500 (  2468 PWs)   bands (ev):

   -50.4597 -50.4494  -2.6436  -0.2439   0.0804   1.5229   2.5951

          k = 0.0000 0.2500-0.5000 (  2458 PWs)   bands (ev):

   -50.4524 -50.4468  -1.9375  -1.4326   0.5753   1.3911   1.9615

          k = 0.0000-0.5000-0.5000 (  2464 PWs)   bands (ev):

   -50.4565 -50.4515  -1.3368  -0.9316  -0.5150   0.2404   2.2101

          k = 0.2500 0.2500 0.2500 (  2470 PWs)   bands (ev):

   -50.4619 -50.4509  -2.3408  -0.1195   0.0948   0.5825   2.6273

          k = 0.2500 0.2500-0.5000 (  2458 PWs)   bands (ev):

   -50.4534 -50.4479  -1.6675  -1.1303   0.5585   1.0422   1.5663

          k = 0.2500-0.5000-0.5000 (  2468 PWs)   bands (ev):

   -50.4572 -50.4562  -1.0952  -0.6085  -0.2863   0.5571   1.3060

          k =-0.5000-0.5000-0.5000 (  2440 PWs)   bands (ev):

   -50.4472 -50.4402  -0.5830  -0.3081   0.1782   0.8787   0.8940

          k = 0.2500 0.0000 0.0000 (  2485 PWs)   bands (ev):

   -50.4682 -50.4592  -2.9496  -0.4891   1.5457   2.0513   2.0931

          k = 0.0000 0.2500 0.0000 (  2485 PWs)   bands (ev):

   -50.4697 -50.4577  -2.9518  -0.3380   1.2265   1.6657   2.3601

          k =-0.5000 0.0000 0.0000 (  2416 PWs)   bands (ev):

   -50.4323 -50.4226  -2.1508  -1.8660   1.8682   2.3468   2.5467

          k = 0.0000-0.5000 0.0000 (  2416 PWs)   bands (ev):

   -50.4304 -50.4245  -2.2660  -1.6377   1.5304   2.0210   2.7138

          k = 0.0000-0.2500 0.2500 (  2468 PWs)   bands (ev):

   -50.4569 -50.4522  -2.6489  -0.2243   0.1144   1.5048   2.3211

          k = 0.2500 0.0000-0.2500 (  2468 PWs)   bands (ev):

   -50.4583 -50.4508  -2.6469  -0.3327   0.1031   1.8897   2.3009

          k =-0.2500 0.0000-0.2500 (  2468 PWs)   bands (ev):

   -50.4601 -50.4489  -2.6422  -0.3878   0.1082   2.0602   2.3358

          k = 0.2500-0.2500 0.0000 (  2468 PWs)   bands (ev):

   -50.4565 -50.4526  -2.6438  -0.3356   0.1000   1.8442   2.4557

          k =-0.2500-0.2500 0.0000 (  2468 PWs)   bands (ev):

   -50.4595 -50.4496  -2.6479  -0.2974   0.1060   1.7700   2.2933

          k = 0.2500 0.0000 0.5000 (  2458 PWs)   bands (ev):

   -50.4574 -50.4418  -1.9422  -1.4243   0.4299   1.2830   2.6109

          k =-0.5000-0.2500 0.0000 (  2458 PWs)   bands (ev):

   -50.4555 -50.4437  -1.8685  -1.5723   0.7025   1.1907   2.3700

          k = 0.0000-0.5000 0.2500 (  2458 PWs)   bands (ev):

   -50.4570 -50.4423  -1.9836  -1.3254   0.4335   1.4637   1.9109

          k = 0.2500-0.5000 0.0000 (  2458 PWs)   bands (ev):

   -50.4545 -50.4448  -1.9872  -1.3195   0.3371   1.4073   2.2854

          k =-0.5000 0.0000 0.2500 (  2458 PWs)   bands (ev):

   -50.4520 -50.4472  -1.8689  -1.5695   0.6505   1.1419   2.5980

          k =-0.5000 0.0000 0.5000 (  2464 PWs)   bands (ev):

   -50.4619 -50.4461  -1.2779  -1.0429  -0.4116  -0.0368   2.9141

          k =-0.5000 0.5000 0.0000 (  2464 PWs)   bands (ev):

   -50.4543 -50.4536  -1.2975  -1.0447  -0.3920   0.0568   2.6333

          k =-0.2500-0.2500 0.2500 (  2470 PWs)   bands (ev):

   -50.4577 -50.4550  -2.3557  -0.0625   0.1202   0.6284   2.1641

          k =-0.2500 0.2500-0.2500 (  2470 PWs)   bands (ev):

   -50.4603 -50.4524  -2.3434  -0.1458   0.1242   0.6010   2.5522

          k = 0.2500-0.2500-0.2500 (  2470 PWs)   bands (ev):

   -50.4621 -50.4507  -2.3414  -0.0733   0.0554   0.5781   2.6430

          k =-0.2500 0.2500 0.5000 (  2458 PWs)   bands (ev):

   -50.4553 -50.4462  -1.6564  -1.1192   0.4294   1.0112   1.7292

          k =-0.5000-0.2500 0.2500 (  2458 PWs)   bands (ev):

   -50.4547 -50.4467  -1.5975  -1.2858   0.8264   1.1311   1.4541

          k = 0.5000-0.2500-0.2500 (  2458 PWs)   bands (ev):

   -50.4563 -50.4452  -1.5826  -1.2696   0.6048   0.9747   1.7436

          k =-0.2500-0.5000 0.2500 (  2458 PWs)   bands (ev):

   -50.4555 -50.4459  -1.7132  -1.0095   0.4044   1.0220   1.5855

          k =-0.2500 0.5000-0.2500 (  2458 PWs)   bands (ev):

   -50.4539 -50.4475  -1.7030  -1.0004   0.2898   1.0210   1.7099

          k =-0.5000 0.2500 0.5000 (  2468 PWs)   bands (ev):

   -50.4624 -50.4510  -1.0238  -0.7625  -0.1552   0.2483   1.6756

          k =-0.5000 0.5000 0.2500 (  2468 PWs)   bands (ev):

   -50.4580 -50.4554  -1.0465  -0.7592  -0.1318   0.3556   1.5359

     the Fermi energy is    -1.4196 ev

!    total energy              =     -29.83307450 Ry
     total all-electron energy =       -29.833097 Ry
     estimated scf accuracy    <          6.1E-09 Ry
     smearing contrib. (-TS)   =      -0.00101855 Ry
     internal energy E=F+TS    =     -29.83205595 Ry

     The total energy is F=E-TS. E is the sum of the following terms:
     one-electron contribution =     -26.63307797 Ry
     hartree contribution      =       9.86973463 Ry
     xc contribution           =      -6.80927159 Ry
     ewald contribution        =      -6.40398701 Ry
     one-center paw contrib.   =       0.14454598 Ry

     convergence has been achieved in   5 iterations

     Forces acting on atoms (cartesian axes, Ry/au):

     atom    1 type  1   force =     0.00607524    0.00536997   -0.00643524
     atom    2 type  1   force =    -0.00607524   -0.00536997    0.00643524

     Total force =     0.014639     Total SCF correction =     0.000018


     Computing stress (Cartesian axis) and pressure

          total   stress  (Ry/bohr**3)                   (kbar)     P=      -79.13
  -0.00053784   0.00002054  -0.00002301          -79.12        3.02       -3.38
   0.00002054  -0.00053606  -0.00002284            3.02      -78.86       -3.36
  -0.00002301  -0.00002284  -0.00053979           -3.38       -3.36      -79.41


     Writing all to output data dir ./tmp/Li_config_29.save/ :
     XML data file, charge density, pseudopotentials, collected wavefunctions

     init_run     :      0.38s CPU      0.40s WALL (       1 calls)
     electrons    :      3.12s CPU      3.26s WALL (       1 calls)
     forces       :      0.06s CPU      0.07s WALL (       1 calls)
     stress       :      0.31s CPU      0.33s WALL (       1 calls)

     Called by init_run:
     wfcinit      :      0.22s CPU      0.23s WALL (       1 calls)
     potinit      :      0.06s CPU      0.06s WALL (       1 calls)
     hinit0       :      0.07s CPU      0.07s WALL (       1 calls)

     Called by electrons:
     c_bands      :      2.22s CPU      2.32s WALL (       6 calls)
     sum_band     :      0.54s CPU      0.56s WALL (       6 calls)
     v_of_rho     :      0.16s CPU      0.17s WALL (       6 calls)
     newd         :      0.11s CPU      0.12s WALL (       6 calls)
     PAW_pot      :      0.13s CPU      0.13s WALL (       6 calls)
     mix_rho      :      0.01s CPU      0.01s WALL (       6 calls)

     Called by c_bands:
     init_us_2    :      0.08s CPU      0.08s WALL (     540 calls)
     cegterg      :      2.15s CPU      2.24s WALL (     216 calls)

     Called by *egterg:
     cdiaghg      :      0.02s CPU      0.02s WALL (     752 calls)
     h_psi        :      1.99s CPU      2.04s WALL (     824 calls)
     s_psi        :      0.05s CPU      0.06s WALL (     824 calls)
     g_psi        :      0.01s CPU      0.01s WALL (     572 calls)

     Called by h_psi:
     h_psi:calbec :      0.07s CPU      0.08s WALL (     824 calls)
     vloc_psi     :      1.87s CPU      1.88s WALL (     824 calls)
     add_vuspsi   :      0.05s CPU      0.07s WALL (     824 calls)

     General routines
     calbec       :      0.11s CPU      0.13s WALL (    1220 calls)
     fft          :      0.08s CPU      0.08s WALL (      85 calls)
     ffts         :      0.01s CPU      0.01s WALL (      12 calls)
     fftw         :      1.81s CPU      1.82s WALL (    9822 calls)
     interpolate  :      0.01s CPU      0.01s WALL (       6 calls)

     Parallel routines

     PWSCF        :      3.90s CPU      4.10s WALL


   This run was terminated on:   9:13:15  28Jan2025            

=------------------------------------------------------------------------------=
   JOB DONE.
=------------------------------------------------------------------------------=
Note: The following floating-point exceptions are signalling: IEEE_INVALID_FLAG IEEE_DIVIDE_BY_ZERO IEEE_OVERFLOW_FLAG IEEE_UNDERFLOW_FLAG
