[Williams-MacBook-Air.local:93716] shmem: mmap: an error occurred while determining whether or not /var/folders/hy/k_vp1md94sz2dr40dtrs6ln80000gn/T//ompi.Williams-MacBook-Air.501/jf.0/2364407808/sm_segment.Williams-MacBook-Air.501.8cee0000.0 could be created.

     Program PWSCF v.7.3.1 starts on 28Jan2025 at  9:12:54 

     This program is part of the open-source Quantum ESPRESSO suite
     for quantum simulation of materials; please cite
         "P. Giannozzi et al., J. Phys.:Condens. Matter 21 395502 (2009);
         "P. Giannozzi et al., J. Phys.:Condens. Matter 29 465901 (2017);
         "P. Giannozzi et al., J. Chem. Phys. 152 154105 (2020);
          URL http://www.quantum-espresso.org", 
     in publications or presentations arising from this work. More details at
     http://www.quantum-espresso.org/quote

     Parallel version (MPI), running on     1 processors

     MPI processes distributed on     1 nodes
     0 MiB available memory on the printing compute node when the environment starts

     Reading input from Li_config_26.in

     Current dimensions of program PWSCF are:
     Max number of different atomic species (ntypx) = 10
     Max number of k-points (npk) =  40000
     Max angular momentum in pseudopotentials (lmaxx) =  4

     Subspace diagonalization in iterative solution of the eigenvalue problem:
     a serial algorithm will be used


     G-vector sticks info
     --------------------
     sticks:   dense  smooth     PW     G-vecs:    dense   smooth      PW
     Sum        1941     777    241                64373    16279    2801

     Using Slab Decomposition



     bravais-lattice index     =            1
     lattice parameter (alat)  =       9.0226  a.u.
     unit-cell volume          =     734.4978 (a.u.)^3
     number of atoms/cell      =            2
     number of atomic types    =            1
     number of electrons       =         6.00
     number of Kohn-Sham states=            7
     kinetic-energy cutoff     =      30.0000  Ry
     charge density cutoff     =     300.0000  Ry
     scf convergence threshold =      1.0E-08
     mixing beta               =       0.7000
     number of iterations used =            8  plain     mixing
     Exchange-correlation= SLA  PW   PBX  PBC
                           (   1   4   3   4   0   0   0)

     celldm(1)=   9.022568  celldm(2)=   0.000000  celldm(3)=   0.000000
     celldm(4)=   0.000000  celldm(5)=   0.000000  celldm(6)=   0.000000

     crystal axes: (cart. coord. in units of alat)
               a(1) = (   1.000000   0.000000   0.000000 )  
               a(2) = (   0.000000   1.000000   0.000000 )  
               a(3) = (   0.000000   0.000000   1.000000 )  

     reciprocal axes: (cart. coord. in units 2 pi/alat)
               b(1) = (  1.000000  0.000000  0.000000 )  
               b(2) = (  0.000000  1.000000  0.000000 )  
               b(3) = (  0.000000  0.000000  1.000000 )  


     PseudoPot. # 1 for Li read from file:
     ../../pseudopotentials/Li.pbe-s-kjpaw_psl.1.0.0.UPF
     MD5 check sum: d3662511b3860c829f7212fdb89d6128
     Pseudo is Projector augmented-wave, Zval =  3.0
     Generated using &quot;atomic&quot; code by A. Dal Corso  v.6.3
     Shape of augmentation charge: PSQ
     Using radial grid of 1017 points,  4 beta functions with: 
                l(1) =   0
                l(2) =   0
                l(3) =   1
                l(4) =   1
     Q(r) pseudized with 0 coefficients 


     atomic species   valence    mass     pseudopotential
     Li                3.00     6.94000     Li( 1.00)

     No symmetry found



   Cartesian axes

     site n.     atom                  positions (alat units)
         1        Li     tau(   1) = (   0.9632840   0.1132360   0.0211860  )
         2        Li     tau(   2) = (   0.3655990   0.4720670   0.6111030  )

     number of k points=    36  Gaussian smearing, width (Ry)=  0.0100
                       cart. coord. in units 2pi/alat
        k(    1) = (   0.0000000   0.0000000   0.0000000), wk =   0.0312500
        k(    2) = (   0.0000000   0.0000000   0.2500000), wk =   0.0625000
        k(    3) = (   0.0000000   0.0000000  -0.5000000), wk =   0.0312500
        k(    4) = (   0.0000000   0.2500000   0.2500000), wk =   0.0625000
        k(    5) = (   0.0000000   0.2500000  -0.5000000), wk =   0.0625000
        k(    6) = (   0.0000000  -0.5000000  -0.5000000), wk =   0.0312500
        k(    7) = (   0.2500000   0.2500000   0.2500000), wk =   0.0625000
        k(    8) = (   0.2500000   0.2500000  -0.5000000), wk =   0.0625000
        k(    9) = (   0.2500000  -0.5000000  -0.5000000), wk =   0.0625000
        k(   10) = (  -0.5000000  -0.5000000  -0.5000000), wk =   0.0312500
        k(   11) = (   0.2500000   0.0000000   0.0000000), wk =   0.0625000
        k(   12) = (   0.0000000   0.2500000   0.0000000), wk =   0.0625000
        k(   13) = (  -0.5000000   0.0000000   0.0000000), wk =   0.0312500
        k(   14) = (   0.0000000  -0.5000000   0.0000000), wk =   0.0312500
        k(   15) = (   0.0000000  -0.2500000   0.2500000), wk =   0.0625000
        k(   16) = (   0.2500000   0.0000000  -0.2500000), wk =   0.0625000
        k(   17) = (  -0.2500000   0.0000000  -0.2500000), wk =   0.0625000
        k(   18) = (   0.2500000  -0.2500000   0.0000000), wk =   0.0625000
        k(   19) = (  -0.2500000  -0.2500000   0.0000000), wk =   0.0625000
        k(   20) = (   0.2500000   0.0000000   0.5000000), wk =   0.0625000
        k(   21) = (  -0.5000000  -0.2500000   0.0000000), wk =   0.0625000
        k(   22) = (   0.0000000  -0.5000000   0.2500000), wk =   0.0625000
        k(   23) = (   0.2500000  -0.5000000   0.0000000), wk =   0.0625000
        k(   24) = (  -0.5000000   0.0000000   0.2500000), wk =   0.0625000
        k(   25) = (  -0.5000000   0.0000000   0.5000000), wk =   0.0312500
        k(   26) = (  -0.5000000   0.5000000   0.0000000), wk =   0.0312500
        k(   27) = (  -0.2500000  -0.2500000   0.2500000), wk =   0.0625000
        k(   28) = (  -0.2500000   0.2500000  -0.2500000), wk =   0.0625000
        k(   29) = (   0.2500000  -0.2500000  -0.2500000), wk =   0.0625000
        k(   30) = (  -0.2500000   0.2500000   0.5000000), wk =   0.0625000
        k(   31) = (  -0.5000000  -0.2500000   0.2500000), wk =   0.0625000
        k(   32) = (   0.5000000  -0.2500000  -0.2500000), wk =   0.0625000
        k(   33) = (  -0.2500000  -0.5000000   0.2500000), wk =   0.0625000
        k(   34) = (  -0.2500000   0.5000000  -0.2500000), wk =   0.0625000
        k(   35) = (  -0.5000000   0.2500000   0.5000000), wk =   0.0625000
        k(   36) = (  -0.5000000   0.5000000   0.2500000), wk =   0.0625000

     Dense  grid:    64373 G-vectors     FFT dimensions: (  50,  50,  50)

     Smooth grid:    16279 G-vectors     FFT dimensions: (  32,  32,  32)

     Estimated max dynamical RAM per process >      93.04 MB

     Initial potential from superposition of free atoms

     starting charge       5.9908, renormalised to       6.0000
     Starting wfcs are   10 randomized atomic wfcs
     Checking if some PAW data can be deallocated... 

     total cpu time spent up to now is        0.4 secs

     Self-consistent Calculation

     iteration #  1     ecut=    30.00 Ry     beta= 0.70
     Davidson diagonalization with overlap
     ethr =  1.00E-02,  avg # of iterations =  2.2

     Threshold (ethr) on eigenvalues was too large:
     Diagonalizing with lowered threshold

     Davidson diagonalization with overlap
     ethr =  2.55E-04,  avg # of iterations =  1.9

     total cpu time spent up to now is        1.1 secs

     total energy              =     -29.85900965 Ry
     estimated scf accuracy    <       0.01598886 Ry

     iteration #  2     ecut=    30.00 Ry     beta= 0.70
     Davidson diagonalization with overlap
     ethr =  2.66E-04,  avg # of iterations =  1.0

     total cpu time spent up to now is        1.4 secs

     total energy              =     -29.85959245 Ry
     estimated scf accuracy    <       0.00075101 Ry

     iteration #  3     ecut=    30.00 Ry     beta= 0.70
     Davidson diagonalization with overlap
     ethr =  1.25E-05,  avg # of iterations =  4.2

     total cpu time spent up to now is        1.9 secs

     total energy              =     -29.85967877 Ry
     estimated scf accuracy    <       0.00000669 Ry

     iteration #  4     ecut=    30.00 Ry     beta= 0.70
     Davidson diagonalization with overlap
     ethr =  1.12E-07,  avg # of iterations =  3.8

     total cpu time spent up to now is        2.4 secs

     total energy              =     -29.85968059 Ry
     estimated scf accuracy    <       0.00000020 Ry

     iteration #  5     ecut=    30.00 Ry     beta= 0.70
     Davidson diagonalization with overlap
     ethr =  3.30E-09,  avg # of iterations =  2.1

     total cpu time spent up to now is        2.7 secs

     End of self-consistent calculation

          k = 0.0000 0.0000 0.0000 (  2007 PWs)   bands (ev):

   -50.0419 -50.0370  -3.2491   1.6927   1.8363   1.9919   2.9526

          k = 0.0000 0.0000 0.2500 (  2024 PWs)   bands (ev):

   -50.0565 -50.0463  -2.8956  -0.0721   2.0982   2.3258   3.2848

          k = 0.0000 0.0000-0.5000 (  2040 PWs)   bands (ev):

   -50.0654 -50.0566  -1.9379  -1.7145   2.7099   3.0283   3.3787

          k = 0.0000 0.2500 0.2500 (  2047 PWs)   bands (ev):

   -50.0674 -50.0622  -2.5428   0.0375   0.5962   2.4467   3.2796

          k = 0.0000 0.2500-0.5000 (  2064 PWs)   bands (ev):

   -50.0794 -50.0712  -1.6086  -1.3684   1.2571   1.7229   3.1505

          k = 0.0000-0.5000-0.5000 (  2048 PWs)   bands (ev):

   -50.0681 -50.0621  -0.8730  -0.7456   0.0023   0.2960   3.6108

          k = 0.2500 0.2500 0.2500 (  2046 PWs)   bands (ev):

   -50.0658 -50.0611  -2.1925   0.3540   0.4474   1.2624   3.4600

          k = 0.2500 0.2500-0.5000 (  2022 PWs)   bands (ev):

   -50.0499 -50.0456  -1.2823  -1.0211   1.2995   1.9021   2.0698

          k = 0.2500-0.5000-0.5000 (  2040 PWs)   bands (ev):

   -50.0635 -50.0543  -0.5503  -0.3655   0.2526   0.6214   2.4465

          k =-0.5000-0.5000-0.5000 (  2008 PWs)   bands (ev):

   -50.0429 -50.0298   0.0969   0.3425   0.5773   1.2280   1.4880

          k = 0.2500 0.0000 0.0000 (  2024 PWs)   bands (ev):

   -50.0552 -50.0476  -2.8955  -0.0663   2.0810   2.3156   3.2889

          k = 0.0000 0.2500 0.0000 (  2024 PWs)   bands (ev):

   -50.0574 -50.0454  -2.8948  -0.0305   2.0397   2.1748   3.4845

          k =-0.5000 0.0000 0.0000 (  2040 PWs)   bands (ev):

   -50.0618 -50.0603  -1.9450  -1.7032   2.6893   2.9918   3.4176

          k = 0.0000-0.5000 0.0000 (  2040 PWs)   bands (ev):

   -50.0660 -50.0561  -1.9825  -1.6394   2.5722   2.7870   3.6959

          k = 0.0000-0.2500 0.2500 (  2047 PWs)   bands (ev):

   -50.0696 -50.0601  -2.5460   0.0495   0.6222   2.4353   3.0595

          k = 0.2500 0.0000-0.2500 (  2047 PWs)   bands (ev):

   -50.0681 -50.0616  -2.5460   0.0201   0.6272   2.5474   3.1041

          k =-0.2500 0.0000-0.2500 (  2047 PWs)   bands (ev):

   -50.0653 -50.0643  -2.5433   0.0040   0.6111   2.5782   3.3047

          k = 0.2500-0.2500 0.0000 (  2047 PWs)   bands (ev):

   -50.0679 -50.0617  -2.5426   0.0430   0.5936   2.4252   3.2861

          k =-0.2500-0.2500 0.0000 (  2047 PWs)   bands (ev):

   -50.0692 -50.0605  -2.5461   0.0545   0.6226   2.4166   3.0525

          k = 0.2500 0.0000 0.5000 (  2064 PWs)   bands (ev):

   -50.0790 -50.0716  -1.6105  -1.3684   1.2356   1.7044   3.2663

          k =-0.5000-0.2500 0.0000 (  2064 PWs)   bands (ev):

   -50.0764 -50.0742  -1.6162  -1.3559   1.2396   1.7439   3.1124

          k = 0.0000-0.5000 0.2500 (  2064 PWs)   bands (ev):

   -50.0769 -50.0737  -1.6586  -1.2848   1.1177   1.8293   3.0445

          k = 0.2500-0.5000 0.0000 (  2064 PWs)   bands (ev):

   -50.0765 -50.0741  -1.6582  -1.2849   1.1221   1.8330   3.0211

          k =-0.5000 0.0000 0.2500 (  2064 PWs)   bands (ev):

   -50.0782 -50.0724  -1.6186  -1.3558   1.2137   1.7217   3.2532

          k =-0.5000 0.0000 0.5000 (  2048 PWs)   bands (ev):

   -50.0707 -50.0596  -0.8635  -0.7659   0.0296   0.2445   3.7771

          k =-0.5000 0.5000 0.0000 (  2048 PWs)   bands (ev):

   -50.0657 -50.0645  -0.8758  -0.7392  -0.0083   0.3096   3.5764

          k =-0.2500-0.2500 0.2500 (  2046 PWs)   bands (ev):

   -50.0688 -50.0581  -2.2009   0.3868   0.4519   1.3130   3.1501

          k =-0.2500 0.2500-0.2500 (  2046 PWs)   bands (ev):

   -50.0659 -50.0611  -2.1920   0.3568   0.4436   1.2596   3.4697

          k = 0.2500-0.2500-0.2500 (  2046 PWs)   bands (ev):

   -50.0683 -50.0587  -2.1916   0.3873   0.4111   1.2522   3.5359

          k =-0.2500 0.2500 0.5000 (  2022 PWs)   bands (ev):

   -50.0552 -50.0404  -1.2726  -1.0103   1.1657   1.6730   2.2969

          k =-0.5000-0.2500 0.2500 (  2022 PWs)   bands (ev):

   -50.0492 -50.0463  -1.2904  -1.0068   1.2681   1.8944   2.1183

          k = 0.5000-0.2500-0.2500 (  2022 PWs)   bands (ev):

   -50.0544 -50.0412  -1.2814  -0.9967   1.1463   1.6945   2.2891

          k =-0.2500-0.5000 0.2500 (  2022 PWs)   bands (ev):

   -50.0552 -50.0403  -1.3329  -0.9258   1.1119   1.8949   2.1526

          k =-0.2500 0.5000-0.2500 (  2022 PWs)   bands (ev):

   -50.0496 -50.0459  -1.3260  -0.9180   1.0290   1.7904   2.2452

          k =-0.5000 0.2500 0.5000 (  2040 PWs)   bands (ev):

   -50.0674 -50.0506  -0.5326  -0.3949   0.2883   0.5552   2.5499

          k =-0.5000 0.5000 0.2500 (  2040 PWs)   bands (ev):

   -50.0616 -50.0562  -0.5551  -0.3554   0.2383   0.6382   2.4259

     the Fermi energy is    -1.2343 ev

!    total energy              =     -29.85968072 Ry
     total all-electron energy =       -29.859703 Ry
     estimated scf accuracy    <          1.7E-09 Ry
     smearing contrib. (-TS)   =      -0.00148813 Ry
     internal energy E=F+TS    =     -29.85819259 Ry

     The total energy is F=E-TS. E is the sum of the following terms:
     one-electron contribution =     -25.44345561 Ry
     hartree contribution      =       9.35352893 Ry
     xc contribution           =      -6.81889908 Ry
     ewald contribution        =      -7.09366822 Ry
     one-center paw contrib.   =       0.14430138 Ry

     convergence has been achieved in   5 iterations

     Forces acting on atoms (cartesian axes, Ry/au):

     atom    1 type  1   force =    -0.00338545   -0.00379803    0.00321489
     atom    2 type  1   force =     0.00338545    0.00379803   -0.00321489

     Total force =     0.008511     Total SCF correction =     0.000062


     Computing stress (Cartesian axis) and pressure

          total   stress  (Ry/bohr**3)                   (kbar)     P=      -99.60
  -0.00067813   0.00001468  -0.00001206          -99.76        2.16       -1.77
   0.00001468  -0.00067404  -0.00001399            2.16      -99.15       -2.06
  -0.00001206  -0.00001399  -0.00067898           -1.77       -2.06      -99.88


     Writing all to output data dir ./tmp/Li_config_26.save/ :
     XML data file, charge density, pseudopotentials, collected wavefunctions

     init_run     :      0.31s CPU      0.32s WALL (       1 calls)
     electrons    :      2.26s CPU      2.37s WALL (       1 calls)
     forces       :      0.05s CPU      0.05s WALL (       1 calls)
     stress       :      0.26s CPU      0.27s WALL (       1 calls)

     Called by init_run:
     wfcinit      :      0.15s CPU      0.16s WALL (       1 calls)
     potinit      :      0.05s CPU      0.06s WALL (       1 calls)
     hinit0       :      0.07s CPU      0.07s WALL (       1 calls)

     Called by electrons:
     c_bands      :      1.55s CPU      1.63s WALL (       6 calls)
     sum_band     :      0.39s CPU      0.41s WALL (       6 calls)
     v_of_rho     :      0.13s CPU      0.14s WALL (       6 calls)
     newd         :      0.09s CPU      0.10s WALL (       6 calls)
     PAW_pot      :      0.13s CPU      0.13s WALL (       6 calls)
     mix_rho      :      0.01s CPU      0.01s WALL (       6 calls)

     Called by c_bands:
     init_us_2    :      0.06s CPU      0.07s WALL (     540 calls)
     cegterg      :      1.49s CPU      1.57s WALL (     216 calls)

     Called by *egterg:
     cdiaghg      :      0.02s CPU      0.02s WALL (     728 calls)
     h_psi        :      1.33s CPU      1.37s WALL (     800 calls)
     s_psi        :      0.04s CPU      0.05s WALL (     800 calls)
     g_psi        :      0.01s CPU      0.01s WALL (     548 calls)

     Called by h_psi:
     h_psi:calbec :      0.06s CPU      0.07s WALL (     800 calls)
     vloc_psi     :      1.23s CPU      1.24s WALL (     800 calls)
     add_vuspsi   :      0.04s CPU      0.05s WALL (     800 calls)

     General routines
     calbec       :      0.09s CPU      0.11s WALL (    1196 calls)
     fft          :      0.08s CPU      0.08s WALL (      85 calls)
     ffts         :      0.01s CPU      0.01s WALL (      12 calls)
     fftw         :      1.15s CPU      1.16s WALL (    9806 calls)
     interpolate  :      0.01s CPU      0.01s WALL (       6 calls)

     Parallel routines

     PWSCF        :      2.90s CPU      3.06s WALL


   This run was terminated on:   9:12:57  28Jan2025            

=------------------------------------------------------------------------------=
   JOB DONE.
=------------------------------------------------------------------------------=
Note: The following floating-point exceptions are signalling: IEEE_INVALID_FLAG IEEE_DIVIDE_BY_ZERO IEEE_OVERFLOW_FLAG IEEE_UNDERFLOW_FLAG
