[Williams-MacBook-Air.local:93652] shmem: mmap: an error occurred while determining whether or not /var/folders/hy/k_vp1md94sz2dr40dtrs6ln80000gn/T//ompi.Williams-MacBook-Air.501/jf.0/2606956544/sm_segment.Williams-MacBook-Air.501.9b630000.0 could be created.

     Program PWSCF v.7.3.1 starts on 28Jan2025 at  9:12: 7 

     This program is part of the open-source Quantum ESPRESSO suite
     for quantum simulation of materials; please cite
         "P. Giannozzi et al., J. Phys.:Condens. Matter 21 395502 (2009);
         "P. Giannozzi et al., J. Phys.:Condens. Matter 29 465901 (2017);
         "P. Giannozzi et al., J. Chem. Phys. 152 154105 (2020);
          URL http://www.quantum-espresso.org", 
     in publications or presentations arising from this work. More details at
     http://www.quantum-espresso.org/quote

     Parallel version (MPI), running on     1 processors

     MPI processes distributed on     1 nodes
     0 MiB available memory on the printing compute node when the environment starts

     Reading input from Li_config_19.in

     Current dimensions of program PWSCF are:
     Max number of different atomic species (ntypx) = 10
     Max number of k-points (npk) =  40000
     Max angular momentum in pseudopotentials (lmaxx) =  4

     Subspace diagonalization in iterative solution of the eigenvalue problem:
     a serial algorithm will be used


     G-vector sticks info
     --------------------
     sticks:   dense  smooth     PW     G-vecs:    dense   smooth      PW
     Sum        2529    1005    293                95049    23871    3911

     Using Slab Decomposition



     bravais-lattice index     =            1
     lattice parameter (alat)  =      10.2713  a.u.
     unit-cell volume          =    1083.6235 (a.u.)^3
     number of atoms/cell      =            2
     number of atomic types    =            1
     number of electrons       =         6.00
     number of Kohn-Sham states=            7
     kinetic-energy cutoff     =      30.0000  Ry
     charge density cutoff     =     300.0000  Ry
     scf convergence threshold =      1.0E-08
     mixing beta               =       0.7000
     number of iterations used =            8  plain     mixing
     Exchange-correlation= SLA  PW   PBX  PBC
                           (   1   4   3   4   0   0   0)

     celldm(1)=  10.271317  celldm(2)=   0.000000  celldm(3)=   0.000000
     celldm(4)=   0.000000  celldm(5)=   0.000000  celldm(6)=   0.000000

     crystal axes: (cart. coord. in units of alat)
               a(1) = (   1.000000   0.000000   0.000000 )  
               a(2) = (   0.000000   1.000000   0.000000 )  
               a(3) = (   0.000000   0.000000   1.000000 )  

     reciprocal axes: (cart. coord. in units 2 pi/alat)
               b(1) = (  1.000000  0.000000  0.000000 )  
               b(2) = (  0.000000  1.000000  0.000000 )  
               b(3) = (  0.000000  0.000000  1.000000 )  


     PseudoPot. # 1 for Li read from file:
     ../../pseudopotentials/Li.pbe-s-kjpaw_psl.1.0.0.UPF
     MD5 check sum: d3662511b3860c829f7212fdb89d6128
     Pseudo is Projector augmented-wave, Zval =  3.0
     Generated using &quot;atomic&quot; code by A. Dal Corso  v.6.3
     Shape of augmentation charge: PSQ
     Using radial grid of 1017 points,  4 beta functions with: 
                l(1) =   0
                l(2) =   0
                l(3) =   1
                l(4) =   1
     Q(r) pseudized with 0 coefficients 


     atomic species   valence    mass     pseudopotential
     Li                3.00     6.94000     Li( 1.00)

     No symmetry found



   Cartesian axes

     site n.     atom                  positions (alat units)
         1        Li     tau(   1) = (   0.0389220   0.1299040   0.1487850  )
         2        Li     tau(   2) = (   0.6232210   0.3547400   0.3848590  )

     number of k points=    36  Gaussian smearing, width (Ry)=  0.0100
                       cart. coord. in units 2pi/alat
        k(    1) = (   0.0000000   0.0000000   0.0000000), wk =   0.0312500
        k(    2) = (   0.0000000   0.0000000   0.2500000), wk =   0.0625000
        k(    3) = (   0.0000000   0.0000000  -0.5000000), wk =   0.0312500
        k(    4) = (   0.0000000   0.2500000   0.2500000), wk =   0.0625000
        k(    5) = (   0.0000000   0.2500000  -0.5000000), wk =   0.0625000
        k(    6) = (   0.0000000  -0.5000000  -0.5000000), wk =   0.0312500
        k(    7) = (   0.2500000   0.2500000   0.2500000), wk =   0.0625000
        k(    8) = (   0.2500000   0.2500000  -0.5000000), wk =   0.0625000
        k(    9) = (   0.2500000  -0.5000000  -0.5000000), wk =   0.0625000
        k(   10) = (  -0.5000000  -0.5000000  -0.5000000), wk =   0.0312500
        k(   11) = (   0.2500000   0.0000000   0.0000000), wk =   0.0625000
        k(   12) = (   0.0000000   0.2500000   0.0000000), wk =   0.0625000
        k(   13) = (  -0.5000000   0.0000000   0.0000000), wk =   0.0312500
        k(   14) = (   0.0000000  -0.5000000   0.0000000), wk =   0.0312500
        k(   15) = (   0.0000000  -0.2500000   0.2500000), wk =   0.0625000
        k(   16) = (   0.2500000   0.0000000  -0.2500000), wk =   0.0625000
        k(   17) = (  -0.2500000   0.0000000  -0.2500000), wk =   0.0625000
        k(   18) = (   0.2500000  -0.2500000   0.0000000), wk =   0.0625000
        k(   19) = (  -0.2500000  -0.2500000   0.0000000), wk =   0.0625000
        k(   20) = (   0.2500000   0.0000000   0.5000000), wk =   0.0625000
        k(   21) = (  -0.5000000  -0.2500000   0.0000000), wk =   0.0625000
        k(   22) = (   0.0000000  -0.5000000   0.2500000), wk =   0.0625000
        k(   23) = (   0.2500000  -0.5000000   0.0000000), wk =   0.0625000
        k(   24) = (  -0.5000000   0.0000000   0.2500000), wk =   0.0625000
        k(   25) = (  -0.5000000   0.0000000   0.5000000), wk =   0.0312500
        k(   26) = (  -0.5000000   0.5000000   0.0000000), wk =   0.0312500
        k(   27) = (  -0.2500000  -0.2500000   0.2500000), wk =   0.0625000
        k(   28) = (  -0.2500000   0.2500000  -0.2500000), wk =   0.0625000
        k(   29) = (   0.2500000  -0.2500000  -0.2500000), wk =   0.0625000
        k(   30) = (  -0.2500000   0.2500000   0.5000000), wk =   0.0625000
        k(   31) = (  -0.5000000  -0.2500000   0.2500000), wk =   0.0625000
        k(   32) = (   0.5000000  -0.2500000  -0.2500000), wk =   0.0625000
        k(   33) = (  -0.2500000  -0.5000000   0.2500000), wk =   0.0625000
        k(   34) = (  -0.2500000   0.5000000  -0.2500000), wk =   0.0625000
        k(   35) = (  -0.5000000   0.2500000   0.5000000), wk =   0.0625000
        k(   36) = (  -0.5000000   0.5000000   0.2500000), wk =   0.0625000

     Dense  grid:    95049 G-vectors     FFT dimensions: (  60,  60,  60)

     Smooth grid:    23871 G-vectors     FFT dimensions: (  36,  36,  36)

     Estimated max dynamical RAM per process >     139.34 MB

     Initial potential from superposition of free atoms

     starting charge       5.9908, renormalised to       6.0000
     Starting wfcs are   10 randomized atomic wfcs
     Checking if some PAW data can be deallocated... 

     total cpu time spent up to now is        0.5 secs

     Self-consistent Calculation

     iteration #  1     ecut=    30.00 Ry     beta= 0.70
     Davidson diagonalization with overlap
     ethr =  1.00E-02,  avg # of iterations =  2.0

     Threshold (ethr) on eigenvalues was too large:
     Diagonalizing with lowered threshold

     Davidson diagonalization with overlap
     ethr =  4.07E-04,  avg # of iterations =  1.6

     total cpu time spent up to now is        1.6 secs

     total energy              =     -29.80942048 Ry
     estimated scf accuracy    <       0.02642462 Ry

     iteration #  2     ecut=    30.00 Ry     beta= 0.70
     Davidson diagonalization with overlap
     ethr =  4.40E-04,  avg # of iterations =  1.0

     total cpu time spent up to now is        2.1 secs

     total energy              =     -29.81080163 Ry
     estimated scf accuracy    <       0.00120890 Ry

     iteration #  3     ecut=    30.00 Ry     beta= 0.70
     Davidson diagonalization with overlap
     ethr =  2.01E-05,  avg # of iterations =  3.2

     total cpu time spent up to now is        2.8 secs

     total energy              =     -29.81095456 Ry
     estimated scf accuracy    <       0.00008004 Ry

     iteration #  4     ecut=    30.00 Ry     beta= 0.70
     Davidson diagonalization with overlap
     ethr =  1.33E-06,  avg # of iterations =  4.2

     total cpu time spent up to now is        3.5 secs

     total energy              =     -29.81097031 Ry
     estimated scf accuracy    <       0.00000296 Ry

     iteration #  5     ecut=    30.00 Ry     beta= 0.70
     Davidson diagonalization with overlap
     ethr =  4.94E-08,  avg # of iterations =  2.7

     total cpu time spent up to now is        4.1 secs

     total energy              =     -29.81097236 Ry
     estimated scf accuracy    <       0.00000004 Ry

     iteration #  6     ecut=    30.00 Ry     beta= 0.70
     Davidson diagonalization with overlap
     ethr =  6.94E-10,  avg # of iterations =  3.1

     total cpu time spent up to now is        4.7 secs

     End of self-consistent calculation

          k = 0.0000 0.0000 0.0000 (  2969 PWs)   bands (ev):

   -50.7189 -50.7161  -3.2281   0.2974   1.0567   1.1574   1.2064

          k = 0.0000 0.0000 0.2500 (  3006 PWs)   bands (ev):

   -50.7322 -50.7316  -2.9713  -0.6082   0.4820   1.2825   1.5629

          k = 0.0000 0.0000-0.5000 (  2946 PWs)   bands (ev):

   -50.7113 -50.6997  -2.4551  -1.6585   0.6952   1.5579   1.7909

          k = 0.0000 0.2500 0.2500 (  3015 PWs)   bands (ev):

   -50.7424 -50.7286  -2.7197  -0.4406  -0.2743   0.6531   1.8654

          k = 0.0000 0.2500-0.5000 (  3004 PWs)   bands (ev):

   -50.7334 -50.7272  -2.2164  -1.4068   0.0410   0.8470   1.2785

          k = 0.0000-0.5000-0.5000 (  3016 PWs)   bands (ev):

   -50.7441 -50.7263  -1.7510  -1.0355  -0.8603   0.2832   1.0712

          k = 0.2500 0.2500 0.2500 (  2998 PWs)   bands (ev):

   -50.7296 -50.7253  -2.4578  -0.5622  -0.1420   0.0874   1.8482

          k = 0.2500 0.2500-0.5000 (  2992 PWs)   bands (ev):

   -50.7303 -50.7191  -1.9770  -1.1307  -0.1841   0.4045   1.2632

          k = 0.2500-0.5000-0.5000 (  3024 PWs)   bands (ev):

   -50.7481 -50.7293  -1.5453  -0.7404  -0.6672   0.3310   0.5914

          k =-0.5000-0.5000-0.5000 (  3016 PWs)   bands (ev):

   -50.7503 -50.7211  -1.0811  -0.8054  -0.0727   0.2339   0.5274

          k = 0.2500 0.0000 0.0000 (  3006 PWs)   bands (ev):

   -50.7372 -50.7265  -2.9636  -0.8679   1.2375   1.3120   1.3423

          k = 0.0000 0.2500 0.0000 (  3006 PWs)   bands (ev):

   -50.7330 -50.7308  -2.9722  -0.5969   0.4766   1.3175   1.5006

          k =-0.5000 0.0000 0.0000 (  2946 PWs)   bands (ev):

   -50.7155 -50.6956  -2.2876  -2.0207   1.3383   1.5312   1.7840

          k = 0.0000-0.5000 0.0000 (  2946 PWs)   bands (ev):

   -50.7112 -50.6999  -2.4635  -1.6397   0.6833   1.5896   1.7340

          k = 0.0000-0.2500 0.2500 (  3015 PWs)   bands (ev):

   -50.7393 -50.7317  -2.7157  -0.4484  -0.2977   0.6612   2.0530

          k = 0.2500 0.0000-0.2500 (  3015 PWs)   bands (ev):

   -50.7420 -50.7290  -2.7125  -0.6688  -0.2827   1.3226   1.5832

          k =-0.2500 0.0000-0.2500 (  3015 PWs)   bands (ev):

   -50.7372 -50.7338  -2.7073  -0.7223  -0.2666   1.4660   1.5895

          k = 0.2500-0.2500 0.0000 (  3015 PWs)   bands (ev):

   -50.7418 -50.7291  -2.7133  -0.6678  -0.2768   1.3255   1.5850

          k =-0.2500-0.2500 0.0000 (  3015 PWs)   bands (ev):

   -50.7371 -50.7339  -2.7084  -0.7170  -0.2624   1.4788   1.5735

          k = 0.2500 0.0000 0.5000 (  3004 PWs)   bands (ev):

   -50.7355 -50.7250  -2.2159  -1.3818  -0.2576   0.9775   1.7759

          k =-0.5000-0.2500 0.0000 (  3004 PWs)   bands (ev):

   -50.7355 -50.7251  -2.0545  -1.7793   0.3004   0.6984   1.8533

          k = 0.0000-0.5000 0.2500 (  3004 PWs)   bands (ev):

   -50.7349 -50.7256  -2.2242  -1.3856   0.0191   0.8418   1.2872

          k = 0.2500-0.5000 0.0000 (  3004 PWs)   bands (ev):

   -50.7317 -50.7288  -2.2239  -1.3613  -0.2704   1.0000   1.8026

          k =-0.5000 0.0000 0.2500 (  3004 PWs)   bands (ev):

   -50.7359 -50.7246  -2.0539  -1.7781   0.2885   0.6844   1.8525

          k =-0.5000 0.0000 0.5000 (  3016 PWs)   bands (ev):

   -50.7454 -50.7250  -1.6303  -1.3588  -0.6069  -0.2203   2.0696

          k =-0.5000 0.5000 0.0000 (  3016 PWs)   bands (ev):

   -50.7416 -50.7287  -1.6354  -1.3650  -0.5928  -0.1994   2.0722

          k =-0.2500-0.2500 0.2500 (  2998 PWs)   bands (ev):

   -50.7301 -50.7247  -2.4575  -0.5086  -0.1895   0.0677   1.9090

          k =-0.2500 0.2500-0.2500 (  2998 PWs)   bands (ev):

   -50.7310 -50.7238  -2.4574  -0.5148  -0.1852   0.0676   1.9156

          k = 0.2500-0.2500-0.2500 (  2998 PWs)   bands (ev):

   -50.7375 -50.7176  -2.4681  -0.4719  -0.1504   0.0802   1.5260

          k =-0.2500 0.2500 0.5000 (  2992 PWs)   bands (ev):

   -50.7338 -50.7155  -1.9847  -1.1368  -0.0959   0.3822   1.1477

          k =-0.5000-0.2500 0.2500 (  2992 PWs)   bands (ev):

   -50.7325 -50.7170  -1.8198  -1.5347   0.2754   0.4824   1.1680

          k = 0.5000-0.2500-0.2500 (  2992 PWs)   bands (ev):

   -50.7327 -50.7166  -1.8297  -1.5462   0.5007   0.5783   0.8740

          k =-0.2500-0.5000 0.2500 (  2992 PWs)   bands (ev):

   -50.7320 -50.7173  -1.9920  -1.1131  -0.1137   0.3734   1.1553

          k =-0.2500 0.5000-0.2500 (  2992 PWs)   bands (ev):

   -50.7292 -50.7202  -1.9840  -1.1073  -0.2043   0.3984   1.2704

          k =-0.5000 0.2500 0.5000 (  3024 PWs)   bands (ev):

   -50.7508 -50.7267  -1.4226  -1.1405  -0.3748   0.0160   0.9690

          k =-0.5000 0.5000 0.2500 (  3024 PWs)   bands (ev):

   -50.7505 -50.7270  -1.4273  -1.1450  -0.3593   0.0386   0.9462

     the Fermi energy is    -1.6071 ev

!    total energy              =     -29.81097247 Ry
     total all-electron energy =       -29.810995 Ry
     estimated scf accuracy    <          4.2E-09 Ry
     smearing contrib. (-TS)   =      -0.00099514 Ry
     internal energy E=F+TS    =     -29.80997733 Ry

     The total energy is F=E-TS. E is the sum of the following terms:
     one-electron contribution =     -27.80219069 Ry
     hartree contribution      =      10.39903490 Ry
     xc contribution           =      -6.80556197 Ry
     ewald contribution        =      -5.74608998 Ry
     one-center paw contrib.   =       0.14483040 Ry

     convergence has been achieved in   6 iterations

     Forces acting on atoms (cartesian axes, Ry/au):

     atom    1 type  1   force =     0.00781839   -0.00555991   -0.00584074
     atom    2 type  1   force =    -0.00781839    0.00555991    0.00584074

     Total force =     0.015884     Total SCF correction =     0.000066


     Computing stress (Cartesian axis) and pressure

          total   stress  (Ry/bohr**3)                   (kbar)     P=      -61.84
  -0.00042183  -0.00001979  -0.00002067          -62.05       -2.91       -3.04
  -0.00001979  -0.00041912   0.00001719           -2.91      -61.65        2.53
  -0.00002067   0.00001719  -0.00042025           -3.04        2.53      -61.82


     Writing all to output data dir ./tmp/Li_config_19.save/ :
     XML data file, charge density, pseudopotentials, collected wavefunctions

     init_run     :      0.43s CPU      0.45s WALL (       1 calls)
     electrons    :      3.95s CPU      4.22s WALL (       1 calls)
     forces       :      0.07s CPU      0.08s WALL (       1 calls)
     stress       :      0.39s CPU      0.41s WALL (       1 calls)

     Called by init_run:
     wfcinit      :      0.24s CPU      0.25s WALL (       1 calls)
     potinit      :      0.08s CPU      0.08s WALL (       1 calls)
     hinit0       :      0.07s CPU      0.08s WALL (       1 calls)

     Called by electrons:
     c_bands      :      2.71s CPU      2.90s WALL (       7 calls)
     sum_band     :      0.71s CPU      0.74s WALL (       7 calls)
     v_of_rho     :      0.27s CPU      0.29s WALL (       7 calls)
     newd         :      0.16s CPU      0.18s WALL (       7 calls)
     PAW_pot      :      0.15s CPU      0.15s WALL (       7 calls)
     mix_rho      :      0.02s CPU      0.02s WALL (       7 calls)

     Called by c_bands:
     init_us_2    :      0.10s CPU      0.11s WALL (     612 calls)
     cegterg      :      2.60s CPU      2.78s WALL (     252 calls)

     Called by *egterg:
     cdiaghg      :      0.03s CPU      0.03s WALL (     854 calls)
     h_psi        :      2.36s CPU      2.44s WALL (     926 calls)
     s_psi        :      0.06s CPU      0.08s WALL (     926 calls)
     g_psi        :      0.01s CPU      0.01s WALL (     638 calls)

     Called by h_psi:
     h_psi:calbec :      0.09s CPU      0.11s WALL (     926 calls)
     vloc_psi     :      2.20s CPU      2.22s WALL (     926 calls)
     add_vuspsi   :      0.07s CPU      0.10s WALL (     926 calls)

     General routines
     calbec       :      0.14s CPU      0.18s WALL (    1358 calls)
     fft          :      0.15s CPU      0.15s WALL (      98 calls)
     ffts         :      0.01s CPU      0.01s WALL (      14 calls)
     fftw         :      2.06s CPU      2.07s WALL (   11090 calls)
     interpolate  :      0.02s CPU      0.02s WALL (       7 calls)

     Parallel routines

     PWSCF        :      4.88s CPU      5.21s WALL


   This run was terminated on:   9:12:12  28Jan2025            

=------------------------------------------------------------------------------=
   JOB DONE.
=------------------------------------------------------------------------------=
Note: The following floating-point exceptions are signalling: IEEE_INVALID_FLAG IEEE_DIVIDE_BY_ZERO IEEE_OVERFLOW_FLAG IEEE_UNDERFLOW_FLAG
