[Williams-MacBook-Air.local:93690] shmem: mmap: an error occurred while determining whether or not /var/folders/hy/k_vp1md94sz2dr40dtrs6ln80000gn/T//ompi.Williams-MacBook-Air.501/jf.0/1104019456/sm_segment.Williams-MacBook-Air.501.41ce0000.0 could be created.

     Program PWSCF v.7.3.1 starts on 28Jan2025 at  9:12:26 

     This program is part of the open-source Quantum ESPRESSO suite
     for quantum simulation of materials; please cite
         "P. Giannozzi et al., J. Phys.:Condens. Matter 21 395502 (2009);
         "P. Giannozzi et al., J. Phys.:Condens. Matter 29 465901 (2017);
         "P. Giannozzi et al., J. Chem. Phys. 152 154105 (2020);
          URL http://www.quantum-espresso.org", 
     in publications or presentations arising from this work. More details at
     http://www.quantum-espresso.org/quote

     Parallel version (MPI), running on     1 processors

     MPI processes distributed on     1 nodes
     0 MiB available memory on the printing compute node when the environment starts

     Reading input from Li_config_22.in

     Current dimensions of program PWSCF are:
     Max number of different atomic species (ntypx) = 10
     Max number of k-points (npk) =  40000
     Max angular momentum in pseudopotentials (lmaxx) =  4

     Subspace diagonalization in iterative solution of the eigenvalue problem:
     a serial algorithm will be used


     G-vector sticks info
     --------------------
     sticks:   dense  smooth     PW     G-vecs:    dense   smooth      PW
     Sum        2801    1117    341               111875    28353    4625

     Using Slab Decomposition



     bravais-lattice index     =            1
     lattice parameter (alat)  =      10.8443  a.u.
     unit-cell volume          =    1275.2747 (a.u.)^3
     number of atoms/cell      =            2
     number of atomic types    =            1
     number of electrons       =         6.00
     number of Kohn-Sham states=            7
     kinetic-energy cutoff     =      30.0000  Ry
     charge density cutoff     =     300.0000  Ry
     scf convergence threshold =      1.0E-08
     mixing beta               =       0.7000
     number of iterations used =            8  plain     mixing
     Exchange-correlation= SLA  PW   PBX  PBC
                           (   1   4   3   4   0   0   0)

     celldm(1)=  10.844293  celldm(2)=   0.000000  celldm(3)=   0.000000
     celldm(4)=   0.000000  celldm(5)=   0.000000  celldm(6)=   0.000000

     crystal axes: (cart. coord. in units of alat)
               a(1) = (   1.000000   0.000000   0.000000 )  
               a(2) = (   0.000000   1.000000   0.000000 )  
               a(3) = (   0.000000   0.000000   1.000000 )  

     reciprocal axes: (cart. coord. in units 2 pi/alat)
               b(1) = (  1.000000  0.000000  0.000000 )  
               b(2) = (  0.000000  1.000000  0.000000 )  
               b(3) = (  0.000000  0.000000  1.000000 )  


     PseudoPot. # 1 for Li read from file:
     ../../pseudopotentials/Li.pbe-s-kjpaw_psl.1.0.0.UPF
     MD5 check sum: d3662511b3860c829f7212fdb89d6128
     Pseudo is Projector augmented-wave, Zval =  3.0
     Generated using &quot;atomic&quot; code by A. Dal Corso  v.6.3
     Shape of augmentation charge: PSQ
     Using radial grid of 1017 points,  4 beta functions with: 
                l(1) =   0
                l(2) =   0
                l(3) =   1
                l(4) =   1
     Q(r) pseudized with 0 coefficients 


     atomic species   valence    mass     pseudopotential
     Li                3.00     6.94000     Li( 1.00)

     No symmetry found



   Cartesian axes

     site n.     atom                  positions (alat units)
         1        Li     tau(   1) = (   0.0613360   0.8557290   0.9128120  )
         2        Li     tau(   2) = (   0.4543920   0.3859210   0.5308570  )

     number of k points=    36  Gaussian smearing, width (Ry)=  0.0100
                       cart. coord. in units 2pi/alat
        k(    1) = (   0.0000000   0.0000000   0.0000000), wk =   0.0312500
        k(    2) = (   0.0000000   0.0000000   0.2500000), wk =   0.0625000
        k(    3) = (   0.0000000   0.0000000  -0.5000000), wk =   0.0312500
        k(    4) = (   0.0000000   0.2500000   0.2500000), wk =   0.0625000
        k(    5) = (   0.0000000   0.2500000  -0.5000000), wk =   0.0625000
        k(    6) = (   0.0000000  -0.5000000  -0.5000000), wk =   0.0312500
        k(    7) = (   0.2500000   0.2500000   0.2500000), wk =   0.0625000
        k(    8) = (   0.2500000   0.2500000  -0.5000000), wk =   0.0625000
        k(    9) = (   0.2500000  -0.5000000  -0.5000000), wk =   0.0625000
        k(   10) = (  -0.5000000  -0.5000000  -0.5000000), wk =   0.0312500
        k(   11) = (   0.2500000   0.0000000   0.0000000), wk =   0.0625000
        k(   12) = (   0.0000000   0.2500000   0.0000000), wk =   0.0625000
        k(   13) = (  -0.5000000   0.0000000   0.0000000), wk =   0.0312500
        k(   14) = (   0.0000000  -0.5000000   0.0000000), wk =   0.0312500
        k(   15) = (   0.0000000  -0.2500000   0.2500000), wk =   0.0625000
        k(   16) = (   0.2500000   0.0000000  -0.2500000), wk =   0.0625000
        k(   17) = (  -0.2500000   0.0000000  -0.2500000), wk =   0.0625000
        k(   18) = (   0.2500000  -0.2500000   0.0000000), wk =   0.0625000
        k(   19) = (  -0.2500000  -0.2500000   0.0000000), wk =   0.0625000
        k(   20) = (   0.2500000   0.0000000   0.5000000), wk =   0.0625000
        k(   21) = (  -0.5000000  -0.2500000   0.0000000), wk =   0.0625000
        k(   22) = (   0.0000000  -0.5000000   0.2500000), wk =   0.0625000
        k(   23) = (   0.2500000  -0.5000000   0.0000000), wk =   0.0625000
        k(   24) = (  -0.5000000   0.0000000   0.2500000), wk =   0.0625000
        k(   25) = (  -0.5000000   0.0000000   0.5000000), wk =   0.0312500
        k(   26) = (  -0.5000000   0.5000000   0.0000000), wk =   0.0312500
        k(   27) = (  -0.2500000  -0.2500000   0.2500000), wk =   0.0625000
        k(   28) = (  -0.2500000   0.2500000  -0.2500000), wk =   0.0625000
        k(   29) = (   0.2500000  -0.2500000  -0.2500000), wk =   0.0625000
        k(   30) = (  -0.2500000   0.2500000   0.5000000), wk =   0.0625000
        k(   31) = (  -0.5000000  -0.2500000   0.2500000), wk =   0.0625000
        k(   32) = (   0.5000000  -0.2500000  -0.2500000), wk =   0.0625000
        k(   33) = (  -0.2500000  -0.5000000   0.2500000), wk =   0.0625000
        k(   34) = (  -0.2500000   0.5000000  -0.2500000), wk =   0.0625000
        k(   35) = (  -0.5000000   0.2500000   0.5000000), wk =   0.0625000
        k(   36) = (  -0.5000000   0.5000000   0.2500000), wk =   0.0625000

     Dense  grid:   111875 G-vectors     FFT dimensions: (  60,  60,  60)

     Smooth grid:    28353 G-vectors     FFT dimensions: (  40,  40,  40)

     Estimated max dynamical RAM per process >     161.31 MB

     Initial potential from superposition of free atoms

     starting charge       5.9908, renormalised to       6.0000
     Starting wfcs are   10 randomized atomic wfcs
     Checking if some PAW data can be deallocated... 

     total cpu time spent up to now is        0.6 secs

     Self-consistent Calculation

     iteration #  1     ecut=    30.00 Ry     beta= 0.70
     Davidson diagonalization with overlap
     ethr =  1.00E-02,  avg # of iterations =  2.0

     Threshold (ethr) on eigenvalues was too large:
     Diagonalizing with lowered threshold

     Davidson diagonalization with overlap
     ethr =  3.07E-04,  avg # of iterations =  1.4

     total cpu time spent up to now is        2.0 secs

     total energy              =     -29.79274000 Ry
     estimated scf accuracy    <       0.01931124 Ry

     iteration #  2     ecut=    30.00 Ry     beta= 0.70
     Davidson diagonalization with overlap
     ethr =  3.22E-04,  avg # of iterations =  1.0

     total cpu time spent up to now is        2.8 secs

     total energy              =     -29.79368397 Ry
     estimated scf accuracy    <       0.00107000 Ry

     iteration #  3     ecut=    30.00 Ry     beta= 0.70
     Davidson diagonalization with overlap
     ethr =  1.78E-05,  avg # of iterations =  2.4

     total cpu time spent up to now is        3.6 secs

     total energy              =     -29.79382821 Ry
     estimated scf accuracy    <       0.00002137 Ry

     iteration #  4     ecut=    30.00 Ry     beta= 0.70
     Davidson diagonalization with overlap
     ethr =  3.56E-07,  avg # of iterations =  4.0

     total cpu time spent up to now is        4.5 secs

     total energy              =     -29.79383560 Ry
     estimated scf accuracy    <       0.00000079 Ry

     iteration #  5     ecut=    30.00 Ry     beta= 0.70
     Davidson diagonalization with overlap
     ethr =  1.31E-08,  avg # of iterations =  2.8

     total cpu time spent up to now is        5.2 secs

     total energy              =     -29.79383615 Ry
     estimated scf accuracy    <       0.00000001 Ry

     iteration #  6     ecut=    30.00 Ry     beta= 0.70
     Davidson diagonalization with overlap
     ethr =  1.68E-10,  avg # of iterations =  2.7

     total cpu time spent up to now is        6.0 secs

     End of self-consistent calculation

          k = 0.0000 0.0000 0.0000 (  3575 PWs)   bands (ev):

   -51.4826 -51.4744  -3.1938   0.3518   0.4509   0.5573   0.8525

          k = 0.0000 0.0000 0.2500 (  3539 PWs)   bands (ev):

   -51.4686 -51.4669  -2.9413  -0.8689   0.5821   0.7043   1.1915

          k = 0.0000 0.0000-0.5000 (  3546 PWs)   bands (ev):

   -51.4731 -51.4700  -2.3540  -1.9448   0.9834   1.0751   1.5306

          k = 0.0000 0.2500 0.2500 (  3553 PWs)   bands (ev):

   -51.4774 -51.4691  -2.6866  -0.6835  -0.6123   0.9113   1.2154

          k = 0.0000 0.2500-0.5000 (  3552 PWs)   bands (ev):

   -51.4744 -51.4718  -2.1059  -1.6845  -0.1601   0.3420   1.3167

          k = 0.0000-0.5000-0.5000 (  3532 PWs)   bands (ev):

   -51.4702 -51.4627  -1.4219  -1.3122  -0.9558  -0.8382   1.7209

          k = 0.2500 0.2500 0.2500 (  3560 PWs)   bands (ev):

   -51.4776 -51.4743  -2.4352  -0.4449  -0.4003  -0.3792   1.2665

          k = 0.2500 0.2500-0.5000 (  3516 PWs)   bands (ev):

   -51.4604 -51.4597  -1.8611  -1.4300   0.0333   0.1305   0.4759

          k = 0.2500-0.5000-0.5000 (  3520 PWs)   bands (ev):

   -51.4683 -51.4548  -1.1833  -1.0682  -0.7137  -0.5962   0.7538

          k =-0.5000-0.5000-0.5000 (  3544 PWs)   bands (ev):

   -51.4803 -51.4617  -0.6611  -0.5422  -0.2128  -0.1609  -0.1585

          k = 0.2500 0.0000 0.0000 (  3539 PWs)   bands (ev):

   -51.4701 -51.4654  -2.9404  -0.8782   0.5867   0.7334   1.1718

          k = 0.0000 0.2500 0.0000 (  3539 PWs)   bands (ev):

   -51.4731 -51.4624  -2.9368  -0.9207   0.6759   0.7992   1.1032

          k =-0.5000 0.0000 0.0000 (  3546 PWs)   bands (ev):

   -51.4722 -51.4710  -2.3388  -1.9673   1.0085   1.1084   1.4883

          k = 0.0000-0.5000 0.0000 (  3546 PWs)   bands (ev):

   -51.4754 -51.4678  -2.2213  -2.1178   1.1336   1.2642   1.3737

          k = 0.0000-0.2500 0.2500 (  3553 PWs)   bands (ev):

   -51.4749 -51.4715  -2.6861  -0.6920  -0.6126   0.9189   1.2738

          k = 0.2500 0.0000-0.2500 (  3553 PWs)   bands (ev):

   -51.4774 -51.4690  -2.6915  -0.6334  -0.6198   0.8105   1.1595

          k =-0.2500 0.0000-0.2500 (  3553 PWs)   bands (ev):

   -51.4747 -51.4718  -2.6897  -0.6625  -0.6129   0.8045   1.3250

          k = 0.2500-0.2500 0.0000 (  3553 PWs)   bands (ev):

   -51.4759 -51.4706  -2.6857  -0.6835  -0.6197   0.9310   1.2226

          k =-0.2500-0.2500 0.0000 (  3553 PWs)   bands (ev):

   -51.4764 -51.4701  -2.6851  -0.6924  -0.6192   0.9408   1.2798

          k = 0.2500 0.0000 0.5000 (  3552 PWs)   bands (ev):

   -51.4761 -51.4701  -2.1102  -1.6905  -0.1151   0.3745   1.1993

          k =-0.5000-0.2500 0.0000 (  3552 PWs)   bands (ev):

   -51.4757 -51.4705  -2.0902  -1.7076  -0.1407   0.3165   1.3538

          k = 0.0000-0.5000 0.2500 (  3552 PWs)   bands (ev):

   -51.4759 -51.4703  -1.9757  -1.8691   0.0550   0.1812   1.4615

          k = 0.2500-0.5000 0.0000 (  3552 PWs)   bands (ev):

   -51.4753 -51.4709  -1.9746  -1.8678   0.0465   0.1734   1.4716

          k =-0.5000 0.0000 0.2500 (  3552 PWs)   bands (ev):

   -51.4766 -51.4696  -2.0955  -1.7151  -0.0871   0.3563   1.2195

          k =-0.5000 0.0000 0.5000 (  3532 PWs)   bands (ev):

   -51.4706 -51.4624  -1.5431  -1.1667  -1.0770  -0.6734   1.5269

          k =-0.5000 0.5000 0.0000 (  3532 PWs)   bands (ev):

   -51.4685 -51.4644  -1.4061  -1.2966  -0.9781  -0.8620   1.7402

          k =-0.2500-0.2500 0.2500 (  3560 PWs)   bands (ev):

   -51.4781 -51.4737  -2.4367  -0.4575  -0.3899  -0.3614   1.1988

          k =-0.2500 0.2500-0.2500 (  3560 PWs)   bands (ev):

   -51.4802 -51.4717  -2.4351  -0.4433  -0.4005  -0.3812   1.2689

          k = 0.2500-0.2500-0.2500 (  3560 PWs)   bands (ev):

   -51.4822 -51.4697  -2.4379  -0.4427  -0.3887  -0.3615   1.1396

          k =-0.2500 0.2500 0.5000 (  3516 PWs)   bands (ev):

   -51.4644 -51.4557  -1.8620  -1.4310   0.0578   0.1324   0.4492

          k =-0.5000-0.2500 0.2500 (  3516 PWs)   bands (ev):

   -51.4613 -51.4588  -1.8462  -1.4551   0.0546   0.1460   0.4699

          k = 0.5000-0.2500-0.2500 (  3516 PWs)   bands (ev):

   -51.4631 -51.4570  -1.8473  -1.4561   0.0798   0.1515   0.4394

          k =-0.2500-0.5000 0.2500 (  3516 PWs)   bands (ev):

   -51.4630 -51.4570  -1.7308  -1.6209   0.2364   0.3164   0.3457

          k =-0.2500 0.5000-0.2500 (  3516 PWs)   bands (ev):

   -51.4611 -51.4589  -1.7279  -1.6182   0.1740   0.1963   0.4957

          k =-0.5000 0.2500 0.5000 (  3520 PWs)   bands (ev):

   -51.4633 -51.4598  -1.3021  -0.8989  -0.8418  -0.4251   0.5550

          k =-0.5000 0.5000 0.2500 (  3520 PWs)   bands (ev):

   -51.4677 -51.4554  -1.1685  -1.0537  -0.7383  -0.6216   0.7790

     the Fermi energy is    -1.6965 ev

!    total energy              =     -29.79383617 Ry
     total all-electron energy =       -29.793859 Ry
     estimated scf accuracy    <          3.2E-10 Ry
     smearing contrib. (-TS)   =      -0.00160493 Ry
     internal energy E=F+TS    =     -29.79223124 Ry

     The total energy is F=E-TS. E is the sum of the following terms:
     one-electron contribution =     -27.20515350 Ry
     hartree contribution      =       9.94894505 Ry
     xc contribution           =      -6.73301215 Ry
     ewald contribution        =      -5.94708119 Ry
     one-center paw contrib.   =       0.14407055 Ry

     convergence has been achieved in   6 iterations

     Forces acting on atoms (cartesian axes, Ry/au):

     atom    1 type  1   force =     0.00300911   -0.00099752   -0.00324122
     atom    2 type  1   force =    -0.00300911    0.00099752    0.00324122

     Total force =     0.006412     Total SCF correction =     0.000006


     Computing stress (Cartesian axis) and pressure

          total   stress  (Ry/bohr**3)                   (kbar)     P=      -59.42
  -0.00040183   0.00000056   0.00000200          -59.11        0.08        0.29
   0.00000056  -0.00040954  -0.00000061            0.08      -60.24       -0.09
   0.00000200  -0.00000061  -0.00040041            0.29       -0.09      -58.90


     Writing all to output data dir ./tmp/Li_config_22.save/ :
     XML data file, charge density, pseudopotentials, collected wavefunctions

     init_run     :      0.51s CPU      0.56s WALL (       1 calls)
     electrons    :      5.07s CPU      5.40s WALL (       1 calls)
     forces       :      0.08s CPU      0.10s WALL (       1 calls)
     stress       :      0.45s CPU      0.47s WALL (       1 calls)

     Called by init_run:
     wfcinit      :      0.31s CPU      0.34s WALL (       1 calls)
     potinit      :      0.08s CPU      0.08s WALL (       1 calls)
     hinit0       :      0.07s CPU      0.08s WALL (       1 calls)

     Called by electrons:
     c_bands      :      3.60s CPU      3.82s WALL (       7 calls)
     sum_band     :      0.91s CPU      0.97s WALL (       7 calls)
     v_of_rho     :      0.27s CPU      0.29s WALL (       7 calls)
     newd         :      0.19s CPU      0.22s WALL (       7 calls)
     PAW_pot      :      0.15s CPU      0.15s WALL (       7 calls)
     mix_rho      :      0.02s CPU      0.02s WALL (       7 calls)

     Called by c_bands:
     init_us_2    :      0.12s CPU      0.14s WALL (     612 calls)
     cegterg      :      3.47s CPU      3.68s WALL (     252 calls)

     Called by *egterg:
     cdiaghg      :      0.03s CPU      0.03s WALL (     804 calls)
     h_psi        :      3.21s CPU      3.35s WALL (     876 calls)
     s_psi        :      0.09s CPU      0.11s WALL (     876 calls)
     g_psi        :      0.01s CPU      0.01s WALL (     588 calls)

     Called by h_psi:
     h_psi:calbec :      0.12s CPU      0.15s WALL (     876 calls)
     vloc_psi     :      2.99s CPU      3.06s WALL (     876 calls)
     add_vuspsi   :      0.09s CPU      0.12s WALL (     876 calls)

     General routines
     calbec       :      0.18s CPU      0.23s WALL (    1308 calls)
     fft          :      0.15s CPU      0.15s WALL (      98 calls)
     ffts         :      0.01s CPU      0.01s WALL (      14 calls)
     fftw         :      2.93s CPU      2.99s WALL (   11046 calls)
     interpolate  :      0.02s CPU      0.02s WALL (       7 calls)

     Parallel routines

     PWSCF        :      6.15s CPU      6.58s WALL


   This run was terminated on:   9:12:32  28Jan2025            

=------------------------------------------------------------------------------=
   JOB DONE.
=------------------------------------------------------------------------------=
Note: The following floating-point exceptions are signalling: IEEE_INVALID_FLAG IEEE_DIVIDE_BY_ZERO IEEE_OVERFLOW_FLAG IEEE_UNDERFLOW_FLAG
