[Williams-MacBook-Air.local:93588] shmem: mmap: an error occurred while determining whether or not /var/folders/hy/k_vp1md94sz2dr40dtrs6ln80000gn/T//ompi.Williams-MacBook-Air.501/jf.0/2868183040/sm_segment.Williams-MacBook-Air.501.aaf50000.0 could be created.

     Program PWSCF v.7.3.1 starts on 28Jan2025 at  9:10:40 

     This program is part of the open-source Quantum ESPRESSO suite
     for quantum simulation of materials; please cite
         "P. Giannozzi et al., J. Phys.:Condens. Matter 21 395502 (2009);
         "P. Giannozzi et al., J. Phys.:Condens. Matter 29 465901 (2017);
         "P. Giannozzi et al., J. Chem. Phys. 152 154105 (2020);
          URL http://www.quantum-espresso.org", 
     in publications or presentations arising from this work. More details at
     http://www.quantum-espresso.org/quote

     Parallel version (MPI), running on     1 processors

     MPI processes distributed on     1 nodes
     0 MiB available memory on the printing compute node when the environment starts

     Reading input from Li_config_5.in

     Current dimensions of program PWSCF are:
     Max number of different atomic species (ntypx) = 10
     Max number of k-points (npk) =  40000
     Max angular momentum in pseudopotentials (lmaxx) =  4

     Subspace diagonalization in iterative solution of the eigenvalue problem:
     a serial algorithm will be used


     G-vector sticks info
     --------------------
     sticks:   dense  smooth     PW     G-vecs:    dense   smooth      PW
     Sum        2933    1177    349               119177    30095    4945

     Using Slab Decomposition



     bravais-lattice index     =            1
     lattice parameter (alat)  =      11.0709  a.u.
     unit-cell volume          =    1356.9188 (a.u.)^3
     number of atoms/cell      =            2
     number of atomic types    =            1
     number of electrons       =         6.00
     number of Kohn-Sham states=            7
     kinetic-energy cutoff     =      30.0000  Ry
     charge density cutoff     =     300.0000  Ry
     scf convergence threshold =      1.0E-08
     mixing beta               =       0.7000
     number of iterations used =            8  plain     mixing
     Exchange-correlation= SLA  PW   PBX  PBC
                           (   1   4   3   4   0   0   0)

     celldm(1)=  11.070943  celldm(2)=   0.000000  celldm(3)=   0.000000
     celldm(4)=   0.000000  celldm(5)=   0.000000  celldm(6)=   0.000000

     crystal axes: (cart. coord. in units of alat)
               a(1) = (   1.000000   0.000000   0.000000 )  
               a(2) = (   0.000000   1.000000   0.000000 )  
               a(3) = (   0.000000   0.000000   1.000000 )  

     reciprocal axes: (cart. coord. in units 2 pi/alat)
               b(1) = (  1.000000  0.000000  0.000000 )  
               b(2) = (  0.000000  1.000000  0.000000 )  
               b(3) = (  0.000000  0.000000  1.000000 )  


     PseudoPot. # 1 for Li read from file:
     ../../pseudopotentials/Li.pbe-s-kjpaw_psl.1.0.0.UPF
     MD5 check sum: d3662511b3860c829f7212fdb89d6128
     Pseudo is Projector augmented-wave, Zval =  3.0
     Generated using &quot;atomic&quot; code by A. Dal Corso  v.6.3
     Shape of augmentation charge: PSQ
     Using radial grid of 1017 points,  4 beta functions with: 
                l(1) =   0
                l(2) =   0
                l(3) =   1
                l(4) =   1
     Q(r) pseudized with 0 coefficients 


     atomic species   valence    mass     pseudopotential
     Li                3.00     6.94000     Li( 1.00)

     No symmetry found



   Cartesian axes

     site n.     atom                  positions (alat units)
         1        Li     tau(   1) = (   0.1359750   0.9585530   0.9805550  )
         2        Li     tau(   2) = (   0.4152580   0.4412640   0.6359200  )

     number of k points=    36  Gaussian smearing, width (Ry)=  0.0100
                       cart. coord. in units 2pi/alat
        k(    1) = (   0.0000000   0.0000000   0.0000000), wk =   0.0312500
        k(    2) = (   0.0000000   0.0000000   0.2500000), wk =   0.0625000
        k(    3) = (   0.0000000   0.0000000  -0.5000000), wk =   0.0312500
        k(    4) = (   0.0000000   0.2500000   0.2500000), wk =   0.0625000
        k(    5) = (   0.0000000   0.2500000  -0.5000000), wk =   0.0625000
        k(    6) = (   0.0000000  -0.5000000  -0.5000000), wk =   0.0312500
        k(    7) = (   0.2500000   0.2500000   0.2500000), wk =   0.0625000
        k(    8) = (   0.2500000   0.2500000  -0.5000000), wk =   0.0625000
        k(    9) = (   0.2500000  -0.5000000  -0.5000000), wk =   0.0625000
        k(   10) = (  -0.5000000  -0.5000000  -0.5000000), wk =   0.0312500
        k(   11) = (   0.2500000   0.0000000   0.0000000), wk =   0.0625000
        k(   12) = (   0.0000000   0.2500000   0.0000000), wk =   0.0625000
        k(   13) = (  -0.5000000   0.0000000   0.0000000), wk =   0.0312500
        k(   14) = (   0.0000000  -0.5000000   0.0000000), wk =   0.0312500
        k(   15) = (   0.0000000  -0.2500000   0.2500000), wk =   0.0625000
        k(   16) = (   0.2500000   0.0000000  -0.2500000), wk =   0.0625000
        k(   17) = (  -0.2500000   0.0000000  -0.2500000), wk =   0.0625000
        k(   18) = (   0.2500000  -0.2500000   0.0000000), wk =   0.0625000
        k(   19) = (  -0.2500000  -0.2500000   0.0000000), wk =   0.0625000
        k(   20) = (   0.2500000   0.0000000   0.5000000), wk =   0.0625000
        k(   21) = (  -0.5000000  -0.2500000   0.0000000), wk =   0.0625000
        k(   22) = (   0.0000000  -0.5000000   0.2500000), wk =   0.0625000
        k(   23) = (   0.2500000  -0.5000000   0.0000000), wk =   0.0625000
        k(   24) = (  -0.5000000   0.0000000   0.2500000), wk =   0.0625000
        k(   25) = (  -0.5000000   0.0000000   0.5000000), wk =   0.0312500
        k(   26) = (  -0.5000000   0.5000000   0.0000000), wk =   0.0312500
        k(   27) = (  -0.2500000  -0.2500000   0.2500000), wk =   0.0625000
        k(   28) = (  -0.2500000   0.2500000  -0.2500000), wk =   0.0625000
        k(   29) = (   0.2500000  -0.2500000  -0.2500000), wk =   0.0625000
        k(   30) = (  -0.2500000   0.2500000   0.5000000), wk =   0.0625000
        k(   31) = (  -0.5000000  -0.2500000   0.2500000), wk =   0.0625000
        k(   32) = (   0.5000000  -0.2500000  -0.2500000), wk =   0.0625000
        k(   33) = (  -0.2500000  -0.5000000   0.2500000), wk =   0.0625000
        k(   34) = (  -0.2500000   0.5000000  -0.2500000), wk =   0.0625000
        k(   35) = (  -0.5000000   0.2500000   0.5000000), wk =   0.0625000
        k(   36) = (  -0.5000000   0.5000000   0.2500000), wk =   0.0625000

     Dense  grid:   119177 G-vectors     FFT dimensions: (  64,  64,  64)

     Smooth grid:    30095 G-vectors     FFT dimensions: (  40,  40,  40)

     Estimated max dynamical RAM per process >     174.00 MB

     Initial potential from superposition of free atoms

     starting charge       5.9908, renormalised to       6.0000
     Starting wfcs are   10 randomized atomic wfcs
     Checking if some PAW data can be deallocated... 

     total cpu time spent up to now is        0.6 secs

     Self-consistent Calculation

     iteration #  1     ecut=    30.00 Ry     beta= 0.70
     Davidson diagonalization with overlap
     ethr =  1.00E-02,  avg # of iterations =  2.0

     Threshold (ethr) on eigenvalues was too large:
     Diagonalizing with lowered threshold

     Davidson diagonalization with overlap
     ethr =  3.44E-04,  avg # of iterations =  1.6

     total cpu time spent up to now is        2.0 secs

     total energy              =     -29.79143917 Ry
     estimated scf accuracy    <       0.02218271 Ry

     iteration #  2     ecut=    30.00 Ry     beta= 0.70
     Davidson diagonalization with overlap
     ethr =  3.70E-04,  avg # of iterations =  1.0

     total cpu time spent up to now is        2.6 secs

     total energy              =     -29.79246064 Ry
     estimated scf accuracy    <       0.00106951 Ry

     iteration #  3     ecut=    30.00 Ry     beta= 0.70
     Davidson diagonalization with overlap
     ethr =  1.78E-05,  avg # of iterations =  2.7

     total cpu time spent up to now is        3.4 secs

     total energy              =     -29.79262898 Ry
     estimated scf accuracy    <       0.00002831 Ry

     iteration #  4     ecut=    30.00 Ry     beta= 0.70
     Davidson diagonalization with overlap
     ethr =  4.72E-07,  avg # of iterations =  4.9

     total cpu time spent up to now is        4.4 secs

     total energy              =     -29.79264250 Ry
     estimated scf accuracy    <       0.00000188 Ry

     iteration #  5     ecut=    30.00 Ry     beta= 0.70
     Davidson diagonalization with overlap
     ethr =  3.13E-08,  avg # of iterations =  2.8

     total cpu time spent up to now is        5.2 secs

     total energy              =     -29.79264394 Ry
     estimated scf accuracy    <       0.00000006 Ry

     iteration #  6     ecut=    30.00 Ry     beta= 0.70
     Davidson diagonalization with overlap
     ethr =  9.62E-10,  avg # of iterations =  3.0

     total cpu time spent up to now is        6.0 secs

     End of self-consistent calculation

          k = 0.0000 0.0000 0.0000 (  3791 PWs)   bands (ev):

   -51.4209 -51.4105  -3.1788   0.1137   0.3961   0.5984   0.7491

          k = 0.0000 0.0000 0.2500 (  3791 PWs)   bands (ev):

   -51.4200 -51.4089  -2.9448  -0.9279   0.3141   0.8181   0.8903

          k = 0.0000 0.0000-0.5000 (  3764 PWs)   bands (ev):

   -51.4055 -51.4026  -2.4424  -1.8946   0.6296   1.0450   1.1508

          k = 0.0000 0.2500 0.2500 (  3784 PWs)   bands (ev):

   -51.4155 -51.4078  -2.7029  -0.8277  -0.6859   0.8979   1.0775

          k = 0.0000 0.2500-0.5000 (  3760 PWs)   bands (ev):

   -51.4065 -51.3993  -2.2092  -1.6448  -0.3957   0.2941   1.3308

          k = 0.0000-0.5000-0.5000 (  3724 PWs)   bands (ev):

   -51.3907 -51.3892  -1.5504  -1.4850  -0.9246  -0.8561   1.5723

          k = 0.2500 0.2500 0.2500 (  3749 PWs)   bands (ev):

   -51.4035 -51.3950  -2.4802  -0.6255  -0.4911  -0.3968   1.1543

          k = 0.2500 0.2500-0.5000 (  3758 PWs)   bands (ev):

   -51.4054 -51.3988  -1.9988  -1.4233  -0.2139   0.0298   0.4369

          k = 0.2500-0.5000-0.5000 (  3772 PWs)   bands (ev):

   -51.4090 -51.4044  -1.3504  -1.2834  -0.7149  -0.6466   0.6760

          k =-0.5000-0.5000-0.5000 (  3840 PWs)   bands (ev):

   -51.4330 -51.4256  -1.0063  -0.9368  -0.3285  -0.2706  -0.1068

          k = 0.2500 0.0000 0.0000 (  3791 PWs)   bands (ev):

   -51.4166 -51.4123  -2.9536  -0.8483   0.2840   0.5963   0.9886

          k = 0.0000 0.2500 0.0000 (  3791 PWs)   bands (ev):

   -51.4192 -51.4097  -2.9359  -1.0382   0.5922   0.7799   0.9477

          k =-0.5000 0.0000 0.0000 (  3764 PWs)   bands (ev):

   -51.4109 -51.3972  -2.5197  -1.7510   0.5214   0.8181   1.3123

          k = 0.0000-0.5000 0.0000 (  3764 PWs)   bands (ev):

   -51.4069 -51.4011  -2.2410  -2.1811   0.9116   0.9648   1.3357

          k = 0.0000-0.2500 0.2500 (  3784 PWs)   bands (ev):

   -51.4194 -51.4039  -2.7035  -0.8207  -0.6846   0.8606   1.0831

          k = 0.2500 0.0000-0.2500 (  3784 PWs)   bands (ev):

   -51.4146 -51.4086  -2.7232  -0.7155  -0.6131   0.4825   1.0582

          k =-0.2500 0.0000-0.2500 (  3784 PWs)   bands (ev):

   -51.4165 -51.4067  -2.7207  -0.7296  -0.6278   0.4738   1.2595

          k = 0.2500-0.2500 0.0000 (  3784 PWs)   bands (ev):

   -51.4169 -51.4063  -2.7123  -0.8382  -0.6102   0.7772   1.0889

          k =-0.2500-0.2500 0.0000 (  3784 PWs)   bands (ev):

   -51.4118 -51.4114  -2.7129  -0.8339  -0.6078   0.7640   1.0666

          k = 0.2500 0.0000 0.5000 (  3760 PWs)   bands (ev):

   -51.4063 -51.3995  -2.2284  -1.6708  -0.1833   0.4464   0.7813

          k =-0.5000-0.2500 0.0000 (  3760 PWs)   bands (ev):

   -51.4064 -51.3994  -2.2873  -1.4979  -0.4849   0.4406   1.0864

          k = 0.0000-0.5000 0.2500 (  3760 PWs)   bands (ev):

   -51.4044 -51.4014  -2.0141  -1.9521  -0.0316   0.0408   1.3548

          k = 0.2500-0.5000 0.0000 (  3760 PWs)   bands (ev):

   -51.4065 -51.3993  -2.0250  -1.9638   0.0477   0.1176   1.2737

          k =-0.5000 0.0000 0.2500 (  3760 PWs)   bands (ev):

   -51.4080 -51.3978  -2.2962  -1.5123  -0.3541   0.5259   0.7073

          k =-0.5000 0.0000 0.5000 (  3724 PWs)   bands (ev):

   -51.3975 -51.3823  -1.8286  -1.2598  -1.0215  -0.3857   0.9751

          k =-0.5000 0.5000 0.0000 (  3724 PWs)   bands (ev):

   -51.3959 -51.3839  -1.6278  -1.5648  -0.7756  -0.7056   1.4502

          k =-0.2500-0.2500 0.2500 (  3749 PWs)   bands (ev):

   -51.4012 -51.3973  -2.4840  -0.6244  -0.4797  -0.3644   0.9715

          k =-0.2500 0.2500-0.2500 (  3749 PWs)   bands (ev):

   -51.4028 -51.3957  -2.4802  -0.6214  -0.4899  -0.4014   1.1552

          k = 0.2500-0.2500-0.2500 (  3749 PWs)   bands (ev):

   -51.4010 -51.3975  -2.4824  -0.6368  -0.4814  -0.3647   1.0183

          k =-0.2500 0.2500 0.5000 (  3758 PWs)   bands (ev):

   -51.4073 -51.3968  -1.9977  -1.4228  -0.2252   0.0245   0.4578

          k =-0.5000-0.2500 0.2500 (  3758 PWs)   bands (ev):

   -51.4051 -51.3990  -2.0664  -1.2611  -0.3010  -0.1036   0.5014

          k = 0.5000-0.2500-0.2500 (  3758 PWs)   bands (ev):

   -51.4056 -51.3986  -2.0653  -1.2606  -0.3153  -0.1023   0.5165

          k =-0.2500-0.5000 0.2500 (  3758 PWs)   bands (ev):

   -51.4055 -51.3986  -1.8031  -1.7398   0.1263   0.1773   0.3405

          k =-0.2500 0.5000-0.2500 (  3758 PWs)   bands (ev):

   -51.4036 -51.4006  -1.7989  -1.7357   0.0437   0.0690   0.4827

          k =-0.5000 0.2500 0.5000 (  3772 PWs)   bands (ev):

   -51.4131 -51.4003  -1.6107  -1.0215  -0.7803  -0.1670   0.1072

          k =-0.5000 0.5000 0.2500 (  3772 PWs)   bands (ev):

   -51.4087 -51.4047  -1.4159  -1.3498  -0.5538  -0.4858   0.5220

     the Fermi energy is    -1.7290 ev

!    total energy              =     -29.79264403 Ry
     total all-electron energy =       -29.792667 Ry
     estimated scf accuracy    <          2.3E-09 Ry
     smearing contrib. (-TS)   =      -0.00127489 Ry
     internal energy E=F+TS    =     -29.79136914 Ry

     The total energy is F=E-TS. E is the sum of the following terms:
     one-electron contribution =     -27.76639850 Ry
     hartree contribution      =      10.24171119 Ry
     xc contribution           =      -6.74576053 Ry
     ewald contribution        =      -5.66522218 Ry
     one-center paw contrib.   =       0.14430089 Ry

     convergence has been achieved in   6 iterations

     Forces acting on atoms (cartesian axes, Ry/au):

     atom    1 type  1   force =     0.00411538    0.00033139   -0.00378626
     atom    2 type  1   force =    -0.00411538   -0.00033139    0.00378626

     Total force =     0.007922     Total SCF correction =     0.000019


     Computing stress (Cartesian axis) and pressure

          total   stress  (Ry/bohr**3)                   (kbar)     P=      -54.06
  -0.00035283  -0.00000025   0.00000322          -51.90       -0.04        0.47
  -0.00000025  -0.00038233   0.00000013           -0.04      -56.24        0.02
   0.00000322   0.00000013  -0.00036725            0.47        0.02      -54.02


     Writing all to output data dir ./tmp/Li_config_5.save/ :
     XML data file, charge density, pseudopotentials, collected wavefunctions

     init_run     :      0.52s CPU      0.55s WALL (       1 calls)
     electrons    :      5.14s CPU      5.40s WALL (       1 calls)
     forces       :      0.09s CPU      0.10s WALL (       1 calls)
     stress       :      0.48s CPU      0.50s WALL (       1 calls)

     Called by init_run:
     wfcinit      :      0.31s CPU      0.32s WALL (       1 calls)
     potinit      :      0.09s CPU      0.09s WALL (       1 calls)
     hinit0       :      0.07s CPU      0.07s WALL (       1 calls)

     Called by electrons:
     c_bands      :      3.56s CPU      3.72s WALL (       7 calls)
     sum_band     :      0.92s CPU      0.96s WALL (       7 calls)
     v_of_rho     :      0.36s CPU      0.38s WALL (       7 calls)
     newd         :      0.20s CPU      0.23s WALL (       7 calls)
     PAW_pot      :      0.15s CPU      0.15s WALL (       7 calls)
     mix_rho      :      0.03s CPU      0.03s WALL (       7 calls)

     Called by c_bands:
     init_us_2    :      0.13s CPU      0.14s WALL (     612 calls)
     cegterg      :      3.42s CPU      3.58s WALL (     252 calls)

     Called by *egterg:
     cdiaghg      :      0.03s CPU      0.03s WALL (     860 calls)
     h_psi        :      3.13s CPU      3.19s WALL (     932 calls)
     s_psi        :      0.08s CPU      0.09s WALL (     932 calls)
     g_psi        :      0.01s CPU      0.01s WALL (     644 calls)

     Called by h_psi:
     h_psi:calbec :      0.11s CPU      0.13s WALL (     932 calls)
     vloc_psi     :      2.92s CPU      2.94s WALL (     932 calls)
     add_vuspsi   :      0.09s CPU      0.10s WALL (     932 calls)

     General routines
     calbec       :      0.18s CPU      0.21s WALL (    1364 calls)
     fft          :      0.24s CPU      0.24s WALL (      98 calls)
     ffts         :      0.01s CPU      0.01s WALL (      14 calls)
     fftw         :      2.75s CPU      2.77s WALL (   11260 calls)
     interpolate  :      0.02s CPU      0.03s WALL (       7 calls)

     Parallel routines

     PWSCF        :      6.27s CPU      6.65s WALL


   This run was terminated on:   9:10:47  28Jan2025            

=------------------------------------------------------------------------------=
   JOB DONE.
=------------------------------------------------------------------------------=
Note: The following floating-point exceptions are signalling: IEEE_INVALID_FLAG IEEE_DIVIDE_BY_ZERO IEEE_OVERFLOW_FLAG IEEE_UNDERFLOW_FLAG
